1 : hf_cc-VDZ.inp
2 : .
3 : 1
4 : 1
----- GAMESS execution script 'rungms' -----
This job is running on host ccp01
under operating system Linux at Thu 17 Feb 2022 02:56:38 PM CET
Available scratch disk space (Kbyte units) at beginning of the job is
Filesystem                          1K-blocks       Used   Available Use% Mounted on
130.89.6.81:/exports/home/filippi 17395693568 3964838912 12557526016  24% /home/filippi
GAMESS temporary binary files will be written to .
GAMESS supplementary output files will be written to .
Copying input file ./hf_cc-VDZ.inp to your run's scratch directory...

 Distributed Data Interface kickoff program.
 Initiating 1 compute processes on 1 nodes to run the following command:
 /software/gamess_intel_oneapi/gamess.00.x hf_cc-VDZ 

          *******************************************************
          *                                                     *
          *      GAMESS VERSION = 30 SEP 2021 (R2 Patch 1)      *
          *                                                     *
          *              doi.org/10.1063/5.0005188              *
          *                                                     *
          **************** 64 BIT INTEL VERSION *****************

  GAMESS HAS BEEN MADE POSSIBLE WITH IMPORTANT CONTRIBUTIONS FROM
  THE FOLLOWING INDIVIDUALS (IN ALPHABETICAL ORDER):

     IVANA ADAMOVIC, CHRISTINE AIKENS, TOMOKO AKAMA,
     YURI ALEXEEV, YURIKO AOKI, POOJA ARORA, TOSHIO ASADA,
     ANDREY ASADCHEV, KIM K. BALDRIDGE, PRADIPTA BANDYOPADHYAY,
     TAYLOR A. BARNES, MARIA BARYSZ, ROB BELL,
     JONATHAN BENTZ, COLLEEN BERTONI,
     JERRY A. BOATZ, BRETT BODE, KURT BRORSEN, KURT R. BRORSEN,
     LAIMUTIS BYTAUTAS, CALEB CARLIN, LAURA CARRINGTON,
     GALINA CHABAN, BENOIT CHAMPAGNE, WEI CHEN, MAHITO CHIBA,
     DAN CHIPMAN, CHEOL HO CHOI, TANNER CULPITT,
     DIPAYAN DATTA, PAUL DAY, ALBERT DEFUSCO,
     NUWAN DESILVA, J. EMILIANO DEUSTUA,
     TIM DUDLEY, MICHEL DUPUIS, STEVEN T. ELBERT,
     DMITRI FEDOROV, ALEX FINDLATER, GRAHAM FLETCHER,
     MARK FREITAG, CHRISTIAN FRIEDL, DAVID GARMER,
     IGOR S. GERASIMOV, KURT GLAESEMANN, MARK S. GORDON,
     JEFFREY GOUR, FENG LONG GU, EMILIE B. GUIDEZ,
     ANASTASIA GUNINA, SHARON HAMMES-SCHIFFER, MASATAKE HARUTA,
     KIMIHIKO HIRAO, YASUHIRO IKABATA, TZVETELIN IORDANOV,
     STEPHAN IRLE, KAZUYA ISHIMURA, JOE IVANIC, FRANK JENSEN,
     JAN H. JENSEN, VISVALDAS KAIRYS, MUNEAKI KAMIYA,
     MICHIO KATOUDA, NAOAKI KAWAKAMI, DAN KEMP, BERNARD KIRTMAN,
     KAZUO KITAURA, MARIUSZ KLOBUKOWSKI, MASATO KOBAYASHI,
     PRAKASHAN KORAMBATH, JACEK KORCHOWIEC, SHIRO KOSEKI,
     KAROL KOWALSKI, JIMMY KROMANN, STANISLAW KUCHARSKI,
     HENRY KURTZ, SAROM SOK LEANG, HUI LI, SHUHUA LI, WEI LI,
     JESSE LUTZ, ALEKSANDR O. LYKHIN, MARCIN MAKOWSKI,
     JOANI MATO, NIKITA MATSUNAGA, BENEDETTA MENNUCCI,
     GRANT MERRILL, NORIYUKI MINEZAWA, VLADIMIR MIRONOV,
     EISAKU MIYOSHI, JOHN A. MONTGOMERY JR., HIROTOSHI MORI,
     JONATHAN MULLIN, MONIKA MUSIAL, SHIGERU NAGASE,
     TAKESHI NAGATA, HIROMI NAKAI, TAKAHITO NAKAJIMA,
     YUYA NAKAJIMA, HARUYUKI NAKANO, HIROYA NAKATA, SEAN NEDD,
     HEATHER NETZLOFF, KIET A. NGUYEN, YOSHIO NISHIMOTO,
     BOSILJKA NJEGIC, RYAN OLSON, MIKE PAK, ROBERTO PEVERATI,
     BUU PHAM, PIOTR PIECUCH, ANNA POMOGAEVA, DAVID POOLE,
     SPENCER PRUITT, OLIVIER QUINET, LUKE ROSKOP,
     KLAUS RUEDENBERG, ANDREW SAND, TOSAPORN SATTASATHUCHANA,
     NOZOMI SAWADA, MICHAEL W. SCHMIDT, PATRICK E. SCHNEIDER,
     JUNJI SEINO, PRACHI SHARMA, JUN SHEN, JIM SHOEMAKER,
     YINAN SHU, DEJUN SI, JONATHAN SKONE, LYUDMILA SLIPCHENKO,
     TONY SMITH, JIE SONG, MARK SPACKMAN, CASPER STEINMANN,
     WALT STEVENS, PEIFENG SU, SHUJUN SU, CHET SWALINA,
     TETSUYA TAKETSUGU, ZHEN TAO, NANDUN THELLAMUREGE
     SEIKEN TOKURA, JACOPO TOMASI, TSUGUKI TOUMA, TAKAO TSUNEDA,
     HIROAKI UMEDA, JORGE LUIS GALVEZ VALLEJO, YALI WANG,
     SIMON WEBB, AARON WEST, THERESA L. WINDUS, MARTA WLOCH,
     PENG XU, KIYOSHI YAGI, SUSUMU YANAGISAWA, YANG YANG,
     SOOHAENG YOO, TAKESHI YOSHIKAWA, FEDERICO ZAHARIEV,
     TOBY ZENG

  WHO ARE SUPPORTED BY THEIR INSTITUTION/UNIVERSITY/COMPANY/GROUP
  (IN ALPHABETICAL ORDER):

     EP ANALYTICS, FACULTES UNIVERSITAIRES NOTRE-DAME DE LA PAIX,
     INSTITUTE FOR MOLECULAR SCIENCE, IOWA STATE UNIVERSITY,
     JACKSON STATE UNIVERSITY, JOHANNES KEPLER UNIVERSITY LINZ,
     KYUSHU UNIVERSITY, MICHIGAN STATE UNIVERSITY,
     MIE UNIVERSITY, THE MOLECULAR SCIENCES SOFTWARE INSTITUTE,
     MOSCOW STATE UNIVERSITY,
     N. COPERNICUS UNIVERSITY, NAGOYA UNIVERSITY,
     NANJING UNIVERSITY, NAT. INST. OF ADVANCED INDUSTRIAL
     SCIENCE AND TECHNOLOGY, NATIONAL INST. OF STANDARDS AND
     TECHNOLOGY, NESMEYANOV INSTITUTE OF ORGANOELEMENT COMPOUNDS
     OF RUSSIAN ACADEMY OF SCIENCES, OSAKA PREFECTURE UNIVERSITY,
     PENNSYLVANIA STATE UNIVERSITY, TOKYO INSTITUTE OF TECHNOLOGY,
     UNIVERSITY OF AARHUS, UNIVERSITY OF ALBERTA,
     UNIVERSITY OF CALIFORNIA AT SANTA BARBARA,
     UNIVERSITY OF COPENHAGEN, UNIVERSITY OF IOWA,
     UNIVERSITY OF MEMPHIS, UNIVERSITY OF MINNESOTA,
     UNIVERSITY OF NEBRASKA, UNIVERSITY OF NEW ENGLAND,
     UNIVERSITY OF NOTRE DAME, UNIVERSITY OF PISA,
     UNIVERSITY OF SILESIA, UNIVERSITY OF TOKYO,
     UNIVERSITY OF ZURICH, WASEDA UNIVERSITY, YALE UNIVERSITY

  GAMESS SOFTWARE MANAGEMENT TEAM FOR THIS RELEASE:
     MARK S. GORDON (TEAM LEAD),
     BRETT BODE (SENIOR ADVISOR),
     GIUSEPPE BARCA,
     COLLEEN BERTONI,
     KRISTOPHER KEIPERT (ADVISOR),
     SAROM S. LEANG (DEVELOPMENT LEAD),
     BUU PHAM,
     JORGE LUIS GALVEZ VALLEJO (WEBSITE ADMINISTRATOR),
     PENG XU

 EXECUTION OF GAMESS BEGUN 14:56:38 17-FEB-2022    

            ECHO OF THE FIRST FEW INPUT CARDS -
 INPUT CARD> $CONTRL SCFTYP=RHF ECP=READ RUNTYP=ENERGY                                      
 INPUT CARD>         MULT=1 UNITS=ANGS                                                      
 INPUT CARD>         ISPHER=1                                                               
 INPUT CARD> $END                                                                           
 INPUT CARD> $SYSTEM TIMLIM=60 MWORDS=100 $END                                              
 INPUT CARD> $GUESS  GUESS=HUCKEL $END                                                      
 INPUT CARD> $DATA                                                                          
 INPUT CARD>Benzene                                                                         
 INPUT CARD>C1                                                                              
 INPUT CARD>  C  6.0     -0.71308        1.20378        0.00000                             
 INPUT CARD>s 9 1.00                                                                        
 INPUT CARD>1 13.073594    0.0051583                                                        
 INPUT CARD>2 6.541187     0.0603424                                                        
 INPUT CARD>3 4.573411    -0.1978471                                                        
 INPUT CARD>4 1.637494    -0.0810340                                                        
 INPUT CARD>5 0.819297     0.2321726                                                        
 INPUT CARD>6 0.409924     0.2914643                                                        
 INPUT CARD>7 0.231300     0.4336405                                                        
 INPUT CARD>8 0.102619     0.2131940                                                        
 INPUT CARD>9 0.051344     0.0049848                                                        
 INPUT CARD>s 1 1.00                                                                        
 INPUT CARD>1 0.127852     1.000000                                                         
 INPUT CARD>p 9 1.00                                                                        
 INPUT CARD>1 9.934169     0.0209076                                                        
 INPUT CARD>2 3.886955     0.0572698                                                        
 INPUT CARD>3 1.871016     0.1122682                                                        
 INPUT CARD>4 0.935757     0.2130082                                                        
 INPUT CARD>5 0.468003     0.2835815                                                        
 INPUT CARD>6 0.239473     0.3011207                                                        
 INPUT CARD>7 0.117063     0.2016934                                                        
 INPUT CARD>8 0.058547     0.0453575                                                        
 INPUT CARD>9 0.029281     0.0029775                                                        
 INPUT CARD>p 1 1.00                                                                        
 INPUT CARD>1 0.149161     1.000000                                                         
 INPUT CARD>d 1 1.00                                                                        
 INPUT CARD>1 0.561160     1.000000                                                         
 INPUT CARD>                                                                                
 INPUT CARD>  C  6.0     -0.00904       -0.01566        0.00000                             
 INPUT CARD>s 9 1.00                                                                        
 INPUT CARD>1 13.073594    0.0051583                                                        
 INPUT CARD>2 6.541187     0.0603424                                                        
 INPUT CARD>3 4.573411    -0.1978471                                                        
 INPUT CARD>4 1.637494    -0.0810340                                                        
 INPUT CARD>5 0.819297     0.2321726                                                        
 INPUT CARD>6 0.409924     0.2914643                                                        
 INPUT CARD>7 0.231300     0.4336405                                                        
 INPUT CARD>8 0.102619     0.2131940                                                        
 INPUT CARD>9 0.051344     0.0049848                                                        
 INPUT CARD>s 1 1.00                                                                        
 INPUT CARD>1 0.127852     1.000000                                                         
  100000000 WORDS OF MEMORY AVAILABLE


     RUN TITLE
     ---------
 Benzene                                                                         

 THE POINT GROUP OF THE MOLECULE IS C1      
 THE ORDER OF THE PRINCIPAL AXIS IS     0

 ATOM      ATOMIC                      COORDINATES (BOHR)
           CHARGE         X                   Y                   Z
 C           6.0    -1.3475258073        2.2748143495        0.0000000000
 C           6.0    -0.0170831229       -0.0295931090        0.0000000000
 C           6.0     2.6438022459       -0.0295931090        0.0000000000
 C           6.0     3.9742449303        2.2748143495        0.0000000000
 C           6.0     2.6438022459        4.5792029107        0.0000000000
 C           6.0    -0.0170831229        4.5792029107        0.0000000000
 H           1.0    -3.2796383490        2.2748143495        0.0000000000
 H           1.0    -0.9831299451       -1.7028509848        0.0000000000
 H           1.0     3.6098490680       -1.7028509848        0.0000000000
 H           1.0     5.9063574719        2.2748143495        0.0000000000
 H           1.0     3.6098490680        6.2524607865        0.0000000000
 H           1.0    -0.9831299451        6.2524607865        0.0000000000

          INTERNUCLEAR DISTANCES (ANGS.)
          ------------------------------

                1 C          2 C          3 C          4 C          5 C     

   1 C       0.0000000    1.4080860 *  2.4388696 *  2.8161600 *  2.4388646 *
   2 C       1.4080860 *  0.0000000    1.4080800 *  2.4388696 *  2.8161634 *
   3 C       2.4388696 *  1.4080800 *  0.0000000    1.4080860 *  2.4388700 *
   4 C       2.8161600 *  2.4388696 *  1.4080860 *  0.0000000    1.4080774 *
   5 C       2.4388646 *  2.8161634 *  2.4388700 *  1.4080774 *  0.0000000  
   6 C       1.4080774 *  2.4388700 *  2.8161634 *  2.4388646 *  1.4080800 *
   7 H       1.0224300 *  2.1137012 *  3.3633967    3.8385900    3.3633931  
   8 H       2.1137042 *  1.0224272 *  2.1136925 *  3.3633944    3.8385906  
   9 H       3.3633944    2.1136925 *  1.0224272 *  2.1137042 *  3.3633970  
  10 H       3.8385900    3.3633967    2.1137012 *  1.0224300 *  2.1136954 *
  11 H       3.3633882    3.8385906    3.3633970    2.1136942 *  1.0224272 *
  12 H       2.1136942 *  3.3633970    3.8385906    3.3633882    2.1136925 *

                6 C          7 H          8 H          9 H         10 H     

   1 C       1.4080774 *  1.0224300 *  2.1137042 *  3.3633944    3.8385900  
   2 C       2.4388700 *  2.1137012 *  1.0224272 *  2.1136925 *  3.3633967  
   3 C       2.8161634 *  3.3633967    2.1136925 *  1.0224272 *  2.1137012 *
   4 C       2.4388646 *  3.8385900    3.3633944    2.1137042 *  1.0224300 *
   5 C       1.4080800 *  3.3633931    3.8385906    3.3633970    2.1136954 *
   6 C       0.0000000    2.1136954 *  3.3633970    3.8385906    3.3633931  
   7 H       2.1136954 *  0.0000000    2.4305182 *  4.2097658    4.8610200  
   8 H       3.3633970    2.4305182 *  0.0000000    2.4305000 *  4.2097658  
   9 H       3.8385906    4.2097658    2.4305000 *  0.0000000    2.4305182 *
  10 H       3.3633931    4.8610200    4.2097658    2.4305182 *  0.0000000  
  11 H       2.1136925 *  4.2097608    4.8610178    4.2097700    2.4305096 *
  12 H       1.0224272 *  2.4305096 *  4.2097700    4.8610178    4.2097608  

               11 H         12 H     

   1 C       3.3633882    2.1136942 *
   2 C       3.8385906    3.3633970  
   3 C       3.3633970    3.8385906  
   4 C       2.1136942 *  3.3633882  
   5 C       1.0224272 *  2.1136925 *
   6 C       2.1136925 *  1.0224272 *
   7 H       4.2097608    2.4305096 *
   8 H       4.8610178    4.2097700  
   9 H       4.2097700    4.8610178  
  10 H       2.4305096 *  4.2097608  
  11 H       0.0000000    2.4305000 *
  12 H       2.4305000 *  0.0000000  

  * ... LESS THAN  3.000


     ATOMIC BASIS SET
     ----------------
 THE CONTRACTED PRIMITIVE FUNCTIONS HAVE BEEN UNNORMALIZED
 THE CONTRACTED BASIS FUNCTIONS ARE NOW NORMALIZED TO UNITY

  SHELL TYPE  PRIMITIVE        EXPONENT          CONTRACTION COEFFICIENT(S)

 C         

      1   S       1            13.0735940    0.005158299799
      1   S       2             6.5411870    0.060342397643
      1   S       3             4.5734110   -0.197847092272
      1   S       4             1.6374940   -0.081033996835
      1   S       5             0.8192970    0.232172590931
      1   S       6             0.4099240    0.291464288615
      1   S       7             0.2313000    0.433640483061
      1   S       8             0.1026190    0.213193991672
      1   S       9             0.0513440    0.004984799805

      2   S      10             0.1278520    1.000000000000

      3   P      11             9.9341690    0.020907599209
      3   P      12             3.8869550    0.057269797835
      3   P      13             1.8710160    0.112268195755
      3   P      14             0.9357570    0.213008191946
      3   P      15             0.4680030    0.283581489278
      3   P      16             0.2394730    0.301120688615
      3   P      17             0.1170630    0.201693392374
      3   P      18             0.0585470    0.045357498285
      3   P      19             0.0292810    0.002977499887

      4   P      20             0.1491610    1.000000000000

      5   D      21             0.5611600    1.000000000000

 C         

      6   S      22            13.0735940    0.005158299799
      6   S      23             6.5411870    0.060342397643
      6   S      24             4.5734110   -0.197847092272
      6   S      25             1.6374940   -0.081033996835
      6   S      26             0.8192970    0.232172590931
      6   S      27             0.4099240    0.291464288615
      6   S      28             0.2313000    0.433640483061
      6   S      29             0.1026190    0.213193991672
      6   S      30             0.0513440    0.004984799805

      7   S      31             0.1278520    1.000000000000

      8   P      32             9.9341690    0.020907599209
      8   P      33             3.8869550    0.057269797835
      8   P      34             1.8710160    0.112268195755
      8   P      35             0.9357570    0.213008191946
      8   P      36             0.4680030    0.283581489278
      8   P      37             0.2394730    0.301120688615
      8   P      38             0.1170630    0.201693392374
      8   P      39             0.0585470    0.045357498285
      8   P      40             0.0292810    0.002977499887

      9   P      41             0.1491610    1.000000000000

     10   D      42             0.5611600    1.000000000000

 C         

     11   S      43            13.0735940    0.005158299799
     11   S      44             6.5411870    0.060342397643
     11   S      45             4.5734110   -0.197847092272
     11   S      46             1.6374940   -0.081033996835
     11   S      47             0.8192970    0.232172590931
     11   S      48             0.4099240    0.291464288615
     11   S      49             0.2313000    0.433640483061
     11   S      50             0.1026190    0.213193991672
     11   S      51             0.0513440    0.004984799805

     12   S      52             0.1278520    1.000000000000

     13   P      53             9.9341690    0.020907599209
     13   P      54             3.8869550    0.057269797835
     13   P      55             1.8710160    0.112268195755
     13   P      56             0.9357570    0.213008191946
     13   P      57             0.4680030    0.283581489278
     13   P      58             0.2394730    0.301120688615
     13   P      59             0.1170630    0.201693392374
     13   P      60             0.0585470    0.045357498285
     13   P      61             0.0292810    0.002977499887

     14   P      62             0.1491610    1.000000000000

     15   D      63             0.5611600    1.000000000000

 C         

     16   S      64            13.0735940    0.005158299799
     16   S      65             6.5411870    0.060342397643
     16   S      66             4.5734110   -0.197847092272
     16   S      67             1.6374940   -0.081033996835
     16   S      68             0.8192970    0.232172590931
     16   S      69             0.4099240    0.291464288615
     16   S      70             0.2313000    0.433640483061
     16   S      71             0.1026190    0.213193991672
     16   S      72             0.0513440    0.004984799805

     17   S      73             0.1278520    1.000000000000

     18   P      74             9.9341690    0.020907599209
     18   P      75             3.8869550    0.057269797835
     18   P      76             1.8710160    0.112268195755
     18   P      77             0.9357570    0.213008191946
     18   P      78             0.4680030    0.283581489278
     18   P      79             0.2394730    0.301120688615
     18   P      80             0.1170630    0.201693392374
     18   P      81             0.0585470    0.045357498285
     18   P      82             0.0292810    0.002977499887

     19   P      83             0.1491610    1.000000000000

     20   D      84             0.5611600    1.000000000000

 C         

     21   S      85            13.0735940    0.005158299799
     21   S      86             6.5411870    0.060342397643
     21   S      87             4.5734110   -0.197847092272
     21   S      88             1.6374940   -0.081033996835
     21   S      89             0.8192970    0.232172590931
     21   S      90             0.4099240    0.291464288615
     21   S      91             0.2313000    0.433640483061
     21   S      92             0.1026190    0.213193991672
     21   S      93             0.0513440    0.004984799805

     22   S      94             0.1278520    1.000000000000

     23   P      95             9.9341690    0.020907599209
     23   P      96             3.8869550    0.057269797835
     23   P      97             1.8710160    0.112268195755
     23   P      98             0.9357570    0.213008191946
     23   P      99             0.4680030    0.283581489278
     23   P     100             0.2394730    0.301120688615
     23   P     101             0.1170630    0.201693392374
     23   P     102             0.0585470    0.045357498285
     23   P     103             0.0292810    0.002977499887

     24   P     104             0.1491610    1.000000000000

     25   D     105             0.5611600    1.000000000000

 C         

     26   S     106            13.0735940    0.005158299799
     26   S     107             6.5411870    0.060342397643
     26   S     108             4.5734110   -0.197847092272
     26   S     109             1.6374940   -0.081033996835
     26   S     110             0.8192970    0.232172590931
     26   S     111             0.4099240    0.291464288615
     26   S     112             0.2313000    0.433640483061
     26   S     113             0.1026190    0.213193991672
     26   S     114             0.0513440    0.004984799805

     27   S     115             0.1278520    1.000000000000

     28   P     116             9.9341690    0.020907599209
     28   P     117             3.8869550    0.057269797835
     28   P     118             1.8710160    0.112268195755
     28   P     119             0.9357570    0.213008191946
     28   P     120             0.4680030    0.283581489278
     28   P     121             0.2394730    0.301120688615
     28   P     122             0.1170630    0.201693392374
     28   P     123             0.0585470    0.045357498285
     28   P     124             0.0292810    0.002977499887

     29   P     125             0.1491610    1.000000000000

     30   D     126             0.5611600    1.000000000000

 H         

     31   S     127            23.8431850    0.004114899701
     31   S     128            10.2124430    0.010464399240
     31   S     129             4.3741640    0.028011097966
     31   S     130             1.8735290    0.075886194491
     31   S     131             0.8024650    0.182106186780
     31   S     132             0.3437090    0.348521374698
     31   S     133             0.1472170    0.378231272542
     31   S     134             0.0630550    0.116424091548

     32   S     135             0.1390130    1.000000000000

     33   P     136             0.7402120    1.000000000000

 H         

     34   S     137            23.8431850    0.004114899701
     34   S     138            10.2124430    0.010464399240
     34   S     139             4.3741640    0.028011097966
     34   S     140             1.8735290    0.075886194491
     34   S     141             0.8024650    0.182106186780
     34   S     142             0.3437090    0.348521374698
     34   S     143             0.1472170    0.378231272542
     34   S     144             0.0630550    0.116424091548

     35   S     145             0.1390130    1.000000000000

     36   P     146             0.7402120    1.000000000000

 H         

     37   S     147            23.8431850    0.004114899701
     37   S     148            10.2124430    0.010464399240
     37   S     149             4.3741640    0.028011097966
     37   S     150             1.8735290    0.075886194491
     37   S     151             0.8024650    0.182106186780
     37   S     152             0.3437090    0.348521374698
     37   S     153             0.1472170    0.378231272542
     37   S     154             0.0630550    0.116424091548

     38   S     155             0.1390130    1.000000000000

     39   P     156             0.7402120    1.000000000000

 H         

     40   S     157            23.8431850    0.004114899701
     40   S     158            10.2124430    0.010464399240
     40   S     159             4.3741640    0.028011097966
     40   S     160             1.8735290    0.075886194491
     40   S     161             0.8024650    0.182106186780
     40   S     162             0.3437090    0.348521374698
     40   S     163             0.1472170    0.378231272542
     40   S     164             0.0630550    0.116424091548

     41   S     165             0.1390130    1.000000000000

     42   P     166             0.7402120    1.000000000000

 H         

     43   S     167            23.8431850    0.004114899701
     43   S     168            10.2124430    0.010464399240
     43   S     169             4.3741640    0.028011097966
     43   S     170             1.8735290    0.075886194491
     43   S     171             0.8024650    0.182106186780
     43   S     172             0.3437090    0.348521374698
     43   S     173             0.1472170    0.378231272542
     43   S     174             0.0630550    0.116424091548

     44   S     175             0.1390130    1.000000000000

     45   P     176             0.7402120    1.000000000000

 H         

     46   S     177            23.8431850    0.004114899701
     46   S     178            10.2124430    0.010464399240
     46   S     179             4.3741640    0.028011097966
     46   S     180             1.8735290    0.075886194491
     46   S     181             0.8024650    0.182106186780
     46   S     182             0.3437090    0.348521374698
     46   S     183             0.1472170    0.378231272542
     46   S     184             0.0630550    0.116424091548

     47   S     185             0.1390130    1.000000000000

     48   P     186             0.7402120    1.000000000000

 TOTAL NUMBER OF BASIS SET SHELLS             =   48
 NUMBER OF CARTESIAN GAUSSIAN BASIS FUNCTIONS =  114
 NOTE: THIS RUN WILL RESTRICT THE MO VARIATION SPACE TO SPHERICAL HARMONICS.
 THE NUMBER OF ORBITALS KEPT IN THE VARIATIONAL SPACE WILL BE PRINTED LATER.
 NUMBER OF ELECTRONS                          =   42
 CHARGE OF MOLECULE                           =    0
 SPIN MULTIPLICITY                            =    1
 NUMBER OF OCCUPIED ORBITALS (ALPHA)          =   21
 NUMBER OF OCCUPIED ORBITALS (BETA )          =   21
 TOTAL NUMBER OF ATOMS                        =   12
 THE NUCLEAR REPULSION ENERGY IS      203.6730495056
 NOTE THIS RUN IS USING CORE POTENTIALS, AND THE NUMBER OF ELECTRONS,
 OCCUPIED ORBITALS, AND NUCLEAR REPULSION ENERGY WILL BE ADJUSTED BELOW
 AFTER REMOVAL OF THE CORE CHARGES.

     $CONTRL OPTIONS
     ---------------
 SCFTYP=RHF          RUNTYP=ENERGY       EXETYP=RUN     
 MPLEVL=       0     CITYP =NONE         CCTYP =NONE         VBTYP =NONE    
 DFTTYP=NONE         TDDFT =NONE    
 MULT  =       1     ICHARG=       0     NZVAR =       0     COORD =UNIQUE  
 PP    =READ         RELWFN=NONE         LOCAL =NONE         NUMGRD=       F
 ISPHER=       1     NOSYM =       0     MAXIT =      30     UNITS =ANGS    
 PLTORB=       F     MOLPLT=       F     AIMPAC=       F     FRIEND=        
 NPRINT=       7     IREST =       0     GEOM  =INPUT   
 NORMF =       0     NORMP =       0     ITOL  =      20     ICUT  =       9
 INTTYP=BEST         GRDTYP=BEST         QMTTOL= 1.0E-06

     $SYSTEM OPTIONS
     ---------------
  REPLICATED MEMORY=   100000000 WORDS (ON EVERY NODE).
 DISTRIBUTED MEMDDI=           0 MILLION WORDS IN AGGREGATE,
 MEMDDI DISTRIBUTED OVER   1 PROCESSORS IS           0 WORDS/PROCESSOR.
 TOTAL MEMORY REQUESTED ON EACH PROCESSOR=   100000000 WORDS.
 TIMLIM=          60.00 MINUTES, OR       0.0 DAYS.
 PARALL= F  BALTYP=  DLB     KDIAG=    0  COREFL= F
 MXSEQ2=     300 MXSEQ3=     150  mem10=         0  mem22=         0

          --------------
          ECP POTENTIALS
          --------------

 PARAMETERS FOR "C-ECP   " ON ATOM    1 WITH ZCORE   2 AND LMAX  1 ARE
 FOR L= 1      COEFF    N           ZETA
    1        4.00000    1       14.43502
    2       57.74008    3        8.39889
    3      -25.81955    2        7.38188
 FOR L= 0      COEFF    N           ZETA
    1       52.13345    2        7.76079

 PARAMETERS FOR "C-ECP   " ON ATOM    2 ARE THE SAME AS ATOM   1

 PARAMETERS FOR "C-ECP   " ON ATOM    3 ARE THE SAME AS ATOM   1

 PARAMETERS FOR "C-ECP   " ON ATOM    4 ARE THE SAME AS ATOM   1

 PARAMETERS FOR "C-ECP   " ON ATOM    5 ARE THE SAME AS ATOM   1

 PARAMETERS FOR "C-ECP   " ON ATOM    6 ARE THE SAME AS ATOM   1

 PARAMETERS FOR "H-ECP   " ON ATOM    7 WITH ZCORE   0 AND LMAX  0 ARE
 FOR L= 0      COEFF    N           ZETA
    1        1.00000    1       21.24360
    2       21.24360    3       21.24360
    3      -10.85192    2       21.77697

 PARAMETERS FOR "H-ECP   " ON ATOM    8 ARE THE SAME AS ATOM   7

 PARAMETERS FOR "H-ECP   " ON ATOM    9 ARE THE SAME AS ATOM   7

 PARAMETERS FOR "H-ECP   " ON ATOM   10 ARE THE SAME AS ATOM   7

 PARAMETERS FOR "H-ECP   " ON ATOM   11 ARE THE SAME AS ATOM   7

 PARAMETERS FOR "H-ECP   " ON ATOM   12 ARE THE SAME AS ATOM   7

 THE ECP RUN REMOVES   12 CORE ELECTRONS, AND THE SAME NUMBER OF PROTONS.
 NUMBER OF ELECTRONS KEPT IN THE CALCULATION IS =   30
 NUMBER OF OCCUPIED ORBITALS (ALPHA) KEPT IS    =   15
 NUMBER OF OCCUPIED ORBITALS (BETA ) KEPT IS    =   15
 THE ADJUSTED NUCLEAR REPULSION ENERGY=      103.6140010797
          ECP ANGULAR INTS.........     0.00 SECONDS

          ----------------
          PROPERTIES INPUT
          ----------------

     MOMENTS            FIELD           POTENTIAL          DENSITY
 IEMOM =       1   IEFLD =       0   IEPOT =       0   IEDEN =       0
 WHERE =COMASS     WHERE =NUCLEI     WHERE =NUCLEI     WHERE =NUCLEI  
 OUTPUT=BOTH       OUTPUT=BOTH       OUTPUT=BOTH       OUTPUT=BOTH    
 IEMINT=       0   IEFINT=       0                     IEDINT=       0
                                                       MORB  =       0
          EXTRAPOLATION IN EFFECT
          SOSCF IN EFFECT
 ORBITAL PRINTING OPTION: NPREO=     1   114     2     1

     -------------------------------
     INTEGRAL TRANSFORMATION OPTIONS
     -------------------------------
     NWORD  =            0
     CUTOFF = 1.0E-09     MPTRAN =       0
     DIRTRF =       F     AOINTS =DUP     

          ----------------------
          INTEGRAL INPUT OPTIONS
          ----------------------
 NOPK  =       1 NORDER=       0 SCHWRZ=       T

     ------------------------------------------
     THE POINT GROUP IS C1 , NAXIS= 0, ORDER= 1
     ------------------------------------------

 -- VARIATIONAL SPACE WILL BE RESTRICTED TO PURE SPHERICAL HARMONICS ONLY --
 AFTER EXCLUDING CONTAMINANT COMBINATIONS FROM THE CARTESIAN GAUSSIAN BASIS
 SET, THE NUMBER OF SPHERICAL HARMONICS KEPT IN THE VARIATION SPACE IS  108

     DIMENSIONS OF THE SYMMETRY SUBSPACES ARE
 A   =  108

 ..... DONE SETTING UP THE RUN .....
 STEP CPU TIME =     0.03 TOTAL CPU TIME =          0.0 (      0.0 MIN)
 TOTAL WALL CLOCK TIME=          0.1 SECONDS, CPU UTILIZATION IS    51.62%

          ********************
          1 ELECTRON INTEGRALS
          ********************
 TIME TO DO ORDINARY INTEGRALS=      0.04
 TIME TO DO      ECP INTEGRALS=      0.39
 ...... END OF ONE-ELECTRON INTEGRALS ......
 STEP CPU TIME =     0.43 TOTAL CPU TIME =          0.5 (      0.0 MIN)
 TOTAL WALL CLOCK TIME=          0.5 SECONDS, CPU UTILIZATION IS    93.06%

          -------------
          GUESS OPTIONS
          -------------
          GUESS =HUCKEL            NORB  =       0          NORDER=       0
          MIX   =       F          PRTMO =       F          PUNMO =       F
          TOLZ  = 1.0E-08          TOLE  = 1.0E-05
          SYMDEN=       F          PURIFY=       F

 INITIAL GUESS ORBITALS GENERATED BY HUCKEL   ROUTINE.
 HUCKEL GUESS REQUIRES    108588 WORDS.

 STATISTICS FOR GENERATION OF SYMMETRY ORBITAL -Q- MATRIX
 NUMBER OF CARTESIAN ATOMIC ORBITALS=        114
 NUMBER OF SPHERICAL CONTAMINANTS DROPPED=     6
 NUMBER OF LINEARLY DEPENDENT MOS DROPPED=     0
 TOTAL NUMBER OF MOS IN VARIATION SPACE=     108

 SYMMETRIES FOR INITIAL GUESS ORBITALS FOLLOW.   BOTH SET(S).
    15 ORBITALS ARE OCCUPIED (    0 CORE ORBITALS).
     1=A        2=A        3=A        4=A        5=A        6=A        7=A   
     8=A        9=A       10=A       11=A       12=A       13=A       14=A   
    15=A       16=A       17=A       18=A       19=A       20=A       21=A   
    22=A       23=A       24=A       25=A   
 ...... END OF INITIAL ORBITAL SELECTION ......
 STEP CPU TIME =     0.02 TOTAL CPU TIME =          0.5 (      0.0 MIN)
 TOTAL WALL CLOCK TIME=          0.5 SECONDS, CPU UTILIZATION IS    93.36%

                    ----------------------
                    AO INTEGRAL TECHNOLOGY
                    ----------------------
     S,P,L SHELL ROTATED AXIS INTEGRALS, REPROGRAMMED BY
        KAZUYA ISHIMURA (IMS) AND JOSE SIERRA (SYNSTAR).
     S,P,D,L SHELL ROTATED AXIS INTEGRALS PROGRAMMED BY
        KAZUYA ISHIMURA (INSTITUTE FOR MOLECULAR SCIENCE).
     S,P,D,F,G SHELL TO TOTAL QUARTET ANGULAR MOMENTUM SUM 5,
        ERIC PROGRAM BY GRAHAM FLETCHER (ELORET AND NASA ADVANCED
        SUPERCOMPUTING DIVISION, AMES RESEARCH CENTER).
     S,P,D,F,G,L SHELL GENERAL RYS QUADRATURE PROGRAMMED BY
        MICHEL DUPUIS (PACIFIC NORTHWEST NATIONAL LABORATORY).

          --------------------
          2 ELECTRON INTEGRALS
          --------------------

 THE -PK- OPTION IS OFF, THE INTEGRALS ARE NOT IN SUPERMATRIX FORM.
 STORING   15000 INTEGRALS/RECORD ON DISK, USING 12 BYTES/INTEGRAL.
 TWO ELECTRON INTEGRAL EVALUATION REQUIRES   91572 WORDS OF MEMORY.
 SCHWARZ INEQUALITY OVERHEAD:      6555 INTEGRALS, T=        0.07
 II,JST,KST,LST =  1  1  1  1 NREC =         1 INTLOC =    1
 II,JST,KST,LST =  2  1  1  1 NREC =         1 INTLOC =    2
 II,JST,KST,LST =  3  1  1  1 NREC =         1 INTLOC =    7
 II,JST,KST,LST =  4  1  1  1 NREC =         1 INTLOC =   34
 II,JST,KST,LST =  5  1  1  1 NREC =         1 INTLOC =  139
 II,JST,KST,LST =  6  1  1  1 NREC =         1 INTLOC =  880
 II,JST,KST,LST =  7  1  1  1 NREC =         1 INTLOC = 1831
 II,JST,KST,LST =  8  1  1  1 NREC =         1 INTLOC = 3007
 II,JST,KST,LST =  9  1  1  1 NREC =         1 INTLOC = 7617
 II,JST,KST,LST = 10  1  1  1 NREC =         1 INTLOC =14734
 II,JST,KST,LST = 11  1  1  1 NREC =         3 INTLOC = 9090
 II,JST,KST,LST = 12  1  1  1 NREC =         4 INTLOC =  389
 II,JST,KST,LST = 13  1  1  1 NREC =         4 INTLOC = 7398
 II,JST,KST,LST = 14  1  1  1 NREC =         6 INTLOC =  814
 II,JST,KST,LST = 15  1  1  1 NREC =         8 INTLOC =  688
 II,JST,KST,LST = 16  1  1  1 NREC =        13 INTLOC = 8611
 II,JST,KST,LST = 17  1  1  1 NREC =        14 INTLOC =14924
 II,JST,KST,LST = 18  1  1  1 NREC =        16 INTLOC = 7864
 II,JST,KST,LST = 19  1  1  1 NREC =        21 INTLOC = 6343
 II,JST,KST,LST = 20  1  1  1 NREC =        27 INTLOC = 4109
 II,JST,KST,LST = 21  1  1  1 NREC =        42 INTLOC = 3607
 II,JST,KST,LST = 22  1  1  1 NREC =        45 INTLOC = 8607
 II,JST,KST,LST = 23  1  1  1 NREC =        49 INTLOC = 1494
 II,JST,KST,LST = 24  1  1  1 NREC =        60 INTLOC = 1613
 II,JST,KST,LST = 25  1  1  1 NREC =        72 INTLOC =11509
 II,JST,KST,LST = 26  1  1  1 NREC =       103 INTLOC = 7722
 II,JST,KST,LST = 27  1  1  1 NREC =       109 INTLOC =14146
 II,JST,KST,LST = 28  1  1  1 NREC =       116 INTLOC = 9986
 II,JST,KST,LST = 29  1  1  1 NREC =       137 INTLOC = 4155
 II,JST,KST,LST = 30  1  1  1 NREC =       160 INTLOC = 5152
 II,JST,KST,LST = 31  1  1  1 NREC =       214 INTLOC = 5920
 II,JST,KST,LST = 32  1  1  1 NREC =       225 INTLOC = 4308
 II,JST,KST,LST = 33  1  1  1 NREC =       236 INTLOC = 8935
 II,JST,KST,LST = 34  1  1  1 NREC =       269 INTLOC = 9557
 II,JST,KST,LST = 35  1  1  1 NREC =       282 INTLOC =12893
 II,JST,KST,LST = 36  1  1  1 NREC =       296 INTLOC = 8645
 II,JST,KST,LST = 37  1  1  1 NREC =       337 INTLOC = 1825
 II,JST,KST,LST = 38  1  1  1 NREC =       352 INTLOC =10717
 II,JST,KST,LST = 39  1  1  1 NREC =       368 INTLOC =12942
 II,JST,KST,LST = 40  1  1  1 NREC =       414 INTLOC = 8351
 II,JST,KST,LST = 41  1  1  1 NREC =       432 INTLOC = 6336
 II,JST,KST,LST = 42  1  1  1 NREC =       450 INTLOC =12979
 II,JST,KST,LST = 43  1  1  1 NREC =       500 INTLOC = 1614
 II,JST,KST,LST = 44  1  1  1 NREC =       521 INTLOC = 2007
 II,JST,KST,LST = 45  1  1  1 NREC =       542 INTLOC =12364
 II,JST,KST,LST = 46  1  1  1 NREC =       599 INTLOC =12388
 II,JST,KST,LST = 47  1  1  1 NREC =       623 INTLOC =14657
 II,JST,KST,LST = 48  1  1  1 NREC =       648 INTLOC =12877
 SCHWARZ INEQUALITY TEST SKIPPED        9673 INTEGRAL BLOCKS.
 TOTAL NUMBER OF NONZERO TWO-ELECTRON INTEGRALS =            10696183
        714 INTEGRAL RECORDS WERE STORED ON DISK FILE  8.
  ...... END OF TWO-ELECTRON INTEGRALS .....
 STEP CPU TIME =    10.31 TOTAL CPU TIME =         10.8 (      0.2 MIN)
 TOTAL WALL CLOCK TIME=         10.8 SECONDS, CPU UTILIZATION IS    99.56%

          --------------------------
                 RHF SCF CALCULATION
          --------------------------

     NUCLEAR ENERGY =       103.6140010797
     MAXIT =   30     NPUNCH=    2
     EXTRAP=T  DAMP=F  SHIFT=F  RSTRCT=F  DIIS=F  DEM=F  SOSCF=T
     DENSITY MATRIX CONV=  1.00E-05
     SOSCF WILL OPTIMIZE    1395 ORBITAL ROTATIONS, SOGTOL=   0.250
     MEMORY REQUIRED FOR RHF ITERS=    128148 WORDS.

 ITER EX DEM     TOTAL ENERGY        E CHANGE  DENSITY CHANGE     ORB. GRAD
   1  0  0      -36.0580369775   -36.0580369775   0.589722514   0.000000000
          ---------------START SECOND ORDER SCF---------------
   2  1  0      -36.4745137862    -0.4164768087   0.119335183   0.057808679
   3  2  0      -36.5019324578    -0.0274186717   0.033389966   0.017000855
   4  3  0      -36.5054432064    -0.0035107486   0.008421308   0.002188595
   5  4  0      -36.5054993091    -0.0000561027   0.001337906   0.000285698
   6  5  0      -36.5055014289    -0.0000021198   0.000279457   0.000052549
   7  6  0      -36.5055014691    -0.0000000402   0.000049749   0.000006782
   8  7  0      -36.5055014703    -0.0000000012   0.000006355   0.000001145
   9  8  0      -36.5055014703    -0.0000000000   0.000001874   0.000000206

          -----------------
          DENSITY CONVERGED
          -----------------
     TIME TO FORM FOCK OPERATORS=       2.0 SECONDS (       0.2 SEC/ITER)
     TIME TO SOLVE SCF EQUATIONS=       0.0 SECONDS (       0.0 SEC/ITER)

 FINAL RHF ENERGY IS      -36.5055014703 AFTER   9 ITERATIONS

          ------------
          EIGENVECTORS
          ------------

                      1          2          3          4          5
                   -1.1496    -1.0220    -1.0220    -0.8363    -0.8363
                     A          A          A          A          A   
    1  C  1  S    0.369028   0.000001   0.519368   0.419259   0.000003
    2  C  1  S   -0.120911   0.000001  -0.135784  -0.191217  -0.000001
    3  C  1  X    0.081812  -0.000000   0.032544  -0.106844  -0.000001
    4  C  1  Y    0.000002  -0.165787   0.000003   0.000001  -0.282785
    5  C  1  Z    0.000000   0.000000   0.000000   0.000000   0.000000
    6  C  1  X   -0.023709   0.000001  -0.031828  -0.014272   0.000001
    7  C  1  Y   -0.000001   0.054121   0.000000  -0.000000   0.056520
    8  C  1  Z    0.000000   0.000000   0.000000   0.000000   0.000000
    9  C  1 XX    0.002523  -0.000000  -0.000066   0.002410  -0.000000
   10  C  1 YY    0.005719   0.000000   0.008665   0.001956   0.000000
   11  C  1 ZZ   -0.008242  -0.000000  -0.008599  -0.004366  -0.000000
   12  C  1 XY    0.000000  -0.014358   0.000000   0.000000  -0.013862
   13  C  1 XZ    0.000000   0.000000   0.000000   0.000000   0.000000
   14  C  1 YZ    0.000000   0.000000   0.000000   0.000000   0.000000
   15  C  2  S    0.369025   0.449790   0.259681  -0.209628   0.363091
   16  C  2  S   -0.120911  -0.117595  -0.067890   0.095608  -0.165600
   17  C  2  X    0.040906   0.085882  -0.116203  -0.185375  -0.168716
   18  C  2  Y    0.070850  -0.017039   0.085879   0.168716  -0.009439
   19  C  2  Z    0.000000   0.000000   0.000000   0.000000   0.000000
   20  C  2  X   -0.011855  -0.037218   0.032633   0.045958   0.018294
   21  C  2  Y   -0.020533  -0.010341  -0.037215  -0.018294  -0.024832
   22  C  2  Z    0.000000   0.000000   0.000000   0.000000   0.000000
   23  C  2 XX    0.004920   0.010998  -0.006085  -0.010038  -0.003406
   24  C  2 YY    0.003322  -0.003551   0.010385   0.007855   0.007187
   25  C  2 ZZ   -0.008242  -0.007447  -0.004300   0.002183  -0.003781
   26  C  2 XY   -0.001598  -0.000191  -0.008400  -0.006116  -0.003269
   27  C  2 XZ    0.000000   0.000000   0.000000   0.000000   0.000000
   28  C  2 YZ    0.000000   0.000000   0.000000   0.000000   0.000000
   29  C  3  S    0.369025   0.449790  -0.259681  -0.209628  -0.363091
   30  C  3  S   -0.120911  -0.117595   0.067890   0.095608   0.165600
   31  C  3  X   -0.040906  -0.085882  -0.116203   0.185375  -0.168716
   32  C  3  Y    0.070850  -0.017039  -0.085879   0.168716   0.009439
   33  C  3  Z    0.000000   0.000000   0.000000   0.000000   0.000000
   34  C  3  X    0.011855   0.037218   0.032633  -0.045958   0.018294
   35  C  3  Y   -0.020533  -0.010341   0.037215  -0.018294   0.024832
   36  C  3  Z    0.000000   0.000000   0.000000   0.000000   0.000000
   37  C  3 XX    0.004920   0.010998   0.006085  -0.010038   0.003406
   38  C  3 YY    0.003322  -0.003551  -0.010385   0.007855  -0.007187
   39  C  3 ZZ   -0.008242  -0.007447   0.004300   0.002183   0.003781
   40  C  3 XY    0.001598   0.000191  -0.008400   0.006116  -0.003269
   41  C  3 XZ    0.000000   0.000000   0.000000   0.000000   0.000000
   42  C  3 YZ    0.000000   0.000000   0.000000   0.000000   0.000000
   43  C  4  S    0.369028   0.000001  -0.519368   0.419259  -0.000003
   44  C  4  S   -0.120911   0.000001   0.135784  -0.191217   0.000001
   45  C  4  X   -0.081812   0.000000   0.032544   0.106844  -0.000001
   46  C  4  Y    0.000002  -0.165787  -0.000003   0.000001   0.282785
   47  C  4  Z    0.000000   0.000000   0.000000   0.000000   0.000000
   48  C  4  X    0.023709  -0.000001  -0.031828   0.014272   0.000001
   49  C  4  Y   -0.000001   0.054121  -0.000000  -0.000000  -0.056520
   50  C  4  Z    0.000000   0.000000   0.000000   0.000000   0.000000
   51  C  4 XX    0.002523  -0.000000   0.000066   0.002410   0.000000
   52  C  4 YY    0.005719   0.000000  -0.008665   0.001956  -0.000000
   53  C  4 ZZ   -0.008242  -0.000000   0.008599  -0.004366   0.000000
   54  C  4 XY   -0.000000   0.014358   0.000000  -0.000000  -0.013862
   55  C  4 XZ    0.000000   0.000000   0.000000   0.000000   0.000000
   56  C  4 YZ    0.000000   0.000000   0.000000   0.000000   0.000000
   57  C  5  S    0.369033  -0.449783  -0.259688  -0.209630   0.363087
   58  C  5  S   -0.120913   0.117592   0.067896   0.095609  -0.165598
   59  C  5  X   -0.040907   0.085879  -0.116206   0.185379   0.168714
   60  C  5  Y   -0.070851  -0.017039   0.085881  -0.168718   0.009439
   61  C  5  Z    0.000000   0.000000   0.000000   0.000000   0.000000
   62  C  5  X    0.011856  -0.037217   0.032634  -0.045959  -0.018295
   63  C  5  Y    0.020534  -0.010341  -0.037220   0.018295   0.024833
   64  C  5  Z    0.000000   0.000000   0.000000   0.000000   0.000000
   65  C  5 XX    0.004920  -0.010998   0.006085  -0.010038  -0.003406
   66  C  5 YY    0.003322   0.003551  -0.010385   0.007855   0.007187
   67  C  5 ZZ   -0.008242   0.007447   0.004300   0.002183  -0.003781
   68  C  5 XY   -0.001598   0.000191   0.008400  -0.006116  -0.003269
   69  C  5 XZ    0.000000   0.000000   0.000000   0.000000   0.000000
   70  C  5 YZ    0.000000   0.000000   0.000000   0.000000   0.000000
   71  C  6  S    0.369033  -0.449783   0.259688  -0.209630  -0.363087
   72  C  6  S   -0.120913   0.117592  -0.067896   0.095609   0.165598
   73  C  6  X    0.040907  -0.085879  -0.116206  -0.185379   0.168714
   74  C  6  Y   -0.070851  -0.017039  -0.085881  -0.168718  -0.009439
   75  C  6  Z    0.000000   0.000000   0.000000   0.000000   0.000000
   76  C  6  X   -0.011856   0.037217   0.032634   0.045959  -0.018295
   77  C  6  Y    0.020534  -0.010341   0.037220   0.018295  -0.024833
   78  C  6  Z    0.000000   0.000000   0.000000   0.000000   0.000000
   79  C  6 XX    0.004920  -0.010998  -0.006085  -0.010038   0.003406
   80  C  6 YY    0.003322   0.003551   0.010385   0.007855  -0.007187
   81  C  6 ZZ   -0.008242   0.007447  -0.004300   0.002183   0.003781
   82  C  6 XY    0.001598  -0.000191   0.008400   0.006116  -0.003269
   83  C  6 XZ    0.000000   0.000000   0.000000   0.000000   0.000000
   84  C  6 YZ    0.000000   0.000000   0.000000   0.000000   0.000000
   85  H  7  S    0.089255   0.000000   0.192518   0.291500   0.000003
   86  H  7  S   -0.035642   0.000000  -0.110335  -0.132687  -0.000001
   87  H  7  X    0.004085   0.000000   0.008916   0.014012   0.000000
   88  H  7  Y    0.000000  -0.003738   0.000000   0.000000  -0.004004
   89  H  7  Z    0.000000   0.000000   0.000000   0.000000   0.000000
   90  H  8  S    0.089254   0.166727   0.096258  -0.145752   0.252450
   91  H  8  S   -0.035642  -0.095554  -0.055166   0.066345  -0.114912
   92  H  8  X    0.002043   0.005479  -0.000574  -0.006506   0.004334
   93  H  8  Y    0.003538   0.005752   0.005479  -0.004334   0.011510
   94  H  8  Z    0.000000   0.000000   0.000000   0.000000   0.000000
   95  H  9  S    0.089254   0.166727  -0.096258  -0.145752  -0.252450
   96  H  9  S   -0.035642  -0.095554   0.055166   0.066345   0.114912
   97  H  9  X   -0.002043  -0.005479  -0.000574   0.006506   0.004334
   98  H  9  Y    0.003538   0.005752  -0.005479  -0.004334  -0.011510
   99  H  9  Z    0.000000   0.000000   0.000000   0.000000   0.000000
  100  H 10  S    0.089255   0.000000  -0.192518   0.291500  -0.000003
  101  H 10  S   -0.035642   0.000000   0.110335  -0.132687   0.000001
  102  H 10  X   -0.004085  -0.000000   0.008916  -0.014012   0.000000
  103  H 10  Y    0.000000  -0.003738  -0.000000   0.000000   0.004004
  104  H 10  Z    0.000000   0.000000   0.000000   0.000000   0.000000
  105  H 11  S    0.089256  -0.166725  -0.096260  -0.145754   0.252447
  106  H 11  S   -0.035644   0.095553   0.055169   0.066345  -0.114910
  107  H 11  X   -0.002043   0.005479  -0.000574   0.006506  -0.004333
  108  H 11  Y   -0.003538   0.005752   0.005479   0.004334  -0.011510
  109  H 11  Z    0.000000   0.000000   0.000000   0.000000   0.000000
  110  H 12  S    0.089256  -0.166725   0.096260  -0.145754  -0.252447
  111  H 12  S   -0.035644   0.095553  -0.055169   0.066345   0.114910
  112  H 12  X    0.002043  -0.005479  -0.000574  -0.006506  -0.004333
  113  H 12  Y   -0.003538   0.005752  -0.005479   0.004334   0.011510
  114  H 12  Z    0.000000   0.000000   0.000000   0.000000   0.000000

                      6          7          8          9         10
                   -0.7193    -0.6737    -0.6085    -0.5959    -0.5959
                     A          A          A          A          A   
    1  C  1  S    0.020453   0.243526  -0.000001   0.000001   0.097088
    2  C  1  S    0.022311  -0.070948  -0.000001  -0.000002   0.037431
    3  C  1  X   -0.288840  -0.195140   0.000004   0.000002   0.437427
    4  C  1  Y    0.000000  -0.000002   0.403630   0.137226   0.000003
    5  C  1  Z    0.000000   0.000000   0.000000   0.000000   0.000000
    6  C  1  X    0.059788   0.067416  -0.000002  -0.000002  -0.091702
    7  C  1  Y    0.000000   0.000001  -0.084747  -0.071546  -0.000000
    8  C  1  Z    0.000000   0.000000   0.000000   0.000000   0.000000
    9  C  1 XX   -0.001439   0.019508  -0.000000  -0.000000  -0.010552
   10  C  1 YY    0.000524  -0.018835   0.000000  -0.000000   0.010814
   11  C  1 ZZ    0.000915  -0.000673   0.000000   0.000000  -0.000262
   12  C  1 XY   -0.000000   0.000000   0.011564   0.021659   0.000000
   13  C  1 XZ    0.000000   0.000000   0.000000   0.000000   0.000000
   14  C  1 YZ    0.000000   0.000000   0.000000   0.000000   0.000000
   15  C  2  S    0.020449  -0.243525  -0.000005  -0.084083   0.048547
   16  C  2  S    0.022312   0.070950  -0.000002  -0.032415   0.018716
   17  C  2  X   -0.144420   0.097572   0.349531  -0.248863   0.006420
   18  C  2  Y   -0.250140   0.169002  -0.201827  -0.293748   0.248836
   19  C  2  Z    0.000000   0.000000   0.000000   0.000000   0.000000
   20  C  2  X    0.029894  -0.033708  -0.073385   0.070695   0.030738
   21  C  2  Y    0.051778  -0.058386   0.042374   0.050888  -0.070689
   22  C  2  Z    0.000000   0.000000   0.000000   0.000000   0.000000
   23  C  2 XX    0.000033   0.009249   0.008671  -0.012863  -0.011332
   24  C  2 YY   -0.000948  -0.009922  -0.008671   0.012635   0.011464
   25  C  2 ZZ    0.000915   0.000673   0.000000   0.000227  -0.000131
   26  C  2 XY   -0.000981  -0.019172   0.005782   0.003836  -0.014720
   27  C  2 XZ    0.000000   0.000000   0.000000   0.000000   0.000000
   28  C  2 YZ    0.000000   0.000000   0.000000   0.000000   0.000000
   29  C  3  S    0.020449   0.243525  -0.000005  -0.084083  -0.048547
   30  C  3  S    0.022312  -0.070950  -0.000002  -0.032415  -0.018716
   31  C  3  X    0.144420   0.097572  -0.349531   0.248863   0.006420
   32  C  3  Y   -0.250140  -0.169002  -0.201827  -0.293748  -0.248836
   33  C  3  Z    0.000000   0.000000   0.000000   0.000000   0.000000
   34  C  3  X   -0.029894  -0.033708   0.073385  -0.070695   0.030738
   35  C  3  Y    0.051778   0.058386   0.042374   0.050888   0.070689
   36  C  3  Z    0.000000   0.000000   0.000000   0.000000   0.000000
   37  C  3 XX    0.000033  -0.009249   0.008671  -0.012863   0.011332
   38  C  3 YY   -0.000948   0.009922  -0.008671   0.012635  -0.011464
   39  C  3 ZZ    0.000915  -0.000673   0.000000   0.000227   0.000131
   40  C  3 XY    0.000981  -0.019172  -0.005782  -0.003836  -0.014720
   41  C  3 XZ    0.000000   0.000000   0.000000   0.000000   0.000000
   42  C  3 YZ    0.000000   0.000000   0.000000   0.000000   0.000000
   43  C  4  S    0.020453  -0.243526  -0.000001   0.000001  -0.097088
   44  C  4  S    0.022311   0.070948  -0.000001  -0.000002  -0.037431
   45  C  4  X    0.288840  -0.195140  -0.000004  -0.000002   0.437427
   46  C  4  Y    0.000000   0.000002   0.403630   0.137226  -0.000003
   47  C  4  Z    0.000000   0.000000   0.000000   0.000000   0.000000
   48  C  4  X   -0.059788   0.067416   0.000002   0.000002  -0.091702
   49  C  4  Y    0.000000  -0.000001  -0.084747  -0.071546   0.000000
   50  C  4  Z    0.000000   0.000000   0.000000   0.000000   0.000000
   51  C  4 XX   -0.001439  -0.019508  -0.000000  -0.000000   0.010552
   52  C  4 YY    0.000524   0.018835   0.000000  -0.000000  -0.010814
   53  C  4 ZZ    0.000915   0.000673   0.000000   0.000000   0.000262
   54  C  4 XY    0.000000   0.000000  -0.011564  -0.021659   0.000000
   55  C  4 XZ    0.000000   0.000000   0.000000   0.000000   0.000000
   56  C  4 YZ    0.000000   0.000000   0.000000   0.000000   0.000000
   57  C  5  S    0.020449   0.243525   0.000005   0.084082  -0.048546
   58  C  5  S    0.022312  -0.070950   0.000002   0.032416  -0.018713
   59  C  5  X    0.144422   0.097571   0.349538  -0.248856   0.006420
   60  C  5  Y    0.250142   0.169000  -0.201826  -0.293746   0.248843
   61  C  5  Z    0.000000   0.000000   0.000000   0.000000   0.000000
   62  C  5  X   -0.029895  -0.033708  -0.073387   0.070694   0.030737
   63  C  5  Y   -0.051779  -0.058386   0.042374   0.050887  -0.070693
   64  C  5  Z    0.000000   0.000000   0.000000   0.000000   0.000000
   65  C  5 XX    0.000033  -0.009249  -0.008672   0.012862   0.011332
   66  C  5 YY   -0.000948   0.009922   0.008672  -0.012635  -0.011464
   67  C  5 ZZ    0.000915  -0.000673   0.000000  -0.000227   0.000131
   68  C  5 XY   -0.000981   0.019172  -0.005782  -0.003836   0.014721
   69  C  5 XZ    0.000000   0.000000   0.000000   0.000000   0.000000
   70  C  5 YZ    0.000000   0.000000   0.000000   0.000000   0.000000
   71  C  6  S    0.020449  -0.243525   0.000005   0.084082   0.048546
   72  C  6  S    0.022312   0.070950   0.000002   0.032416   0.018713
   73  C  6  X   -0.144422   0.097571  -0.349538   0.248856   0.006420
   74  C  6  Y    0.250142  -0.169000  -0.201826  -0.293746  -0.248843
   75  C  6  Z    0.000000   0.000000   0.000000   0.000000   0.000000
   76  C  6  X    0.029895  -0.033708   0.073387  -0.070694   0.030737
   77  C  6  Y   -0.051779   0.058386   0.042374   0.050887   0.070693
   78  C  6  Z    0.000000   0.000000   0.000000   0.000000   0.000000
   79  C  6 XX    0.000033   0.009249  -0.008672   0.012862  -0.011332
   80  C  6 YY   -0.000948  -0.009922   0.008672  -0.012635   0.011464
   81  C  6 ZZ    0.000915   0.000673   0.000000  -0.000227  -0.000131
   82  C  6 XY    0.000981   0.019172   0.005782   0.003836   0.014721
   83  C  6 XZ    0.000000   0.000000   0.000000   0.000000   0.000000
   84  C  6 YZ    0.000000   0.000000   0.000000   0.000000   0.000000
   85  H  7  S    0.263785   0.322839  -0.000005  -0.000002  -0.385656
   86  H  7  S   -0.120967  -0.079253   0.000001   0.000000   0.116921
   87  H  7  X    0.010079   0.012101  -0.000000  -0.000000  -0.012371
   88  H  7  Y   -0.000000  -0.000000   0.006946   0.005351   0.000000
   89  H  7  Z    0.000000   0.000000   0.000000   0.000000   0.000000
   90  H  8  S    0.263781  -0.322845   0.000019   0.333988  -0.192821
   91  H  8  S   -0.120965   0.079254  -0.000006  -0.101257   0.058459
   92  H  8  X    0.005039  -0.006051   0.006016   0.003039  -0.007106
   93  H  8  Y    0.008729  -0.010480  -0.003472   0.010616  -0.003040
   94  H  8  Z    0.000000   0.000000   0.000000   0.000000   0.000000
   95  H  9  S    0.263781   0.322845   0.000019   0.333988   0.192821
   96  H  9  S   -0.120965  -0.079254  -0.000006  -0.101257  -0.058459
   97  H  9  X   -0.005039  -0.006051  -0.006016  -0.003039  -0.007106
   98  H  9  Y    0.008729   0.010480  -0.003472   0.010616   0.003040
   99  H  9  Z    0.000000   0.000000   0.000000   0.000000   0.000000
  100  H 10  S    0.263785  -0.322839  -0.000005  -0.000001   0.385656
  101  H 10  S   -0.120967   0.079253   0.000001   0.000000  -0.116921
  102  H 10  X   -0.010079   0.012101   0.000000   0.000000  -0.012371
  103  H 10  Y   -0.000000   0.000000   0.006946   0.005351  -0.000000
  104  H 10  Z    0.000000   0.000000   0.000000   0.000000   0.000000
  105  H 11  S    0.263783   0.322844  -0.000016  -0.333983   0.192828
  106  H 11  S   -0.120966  -0.079254   0.000005   0.101256  -0.058460
  107  H 11  X   -0.005039  -0.006051   0.006016   0.003039  -0.007106
  108  H 11  Y   -0.008729  -0.010480  -0.003473   0.010616  -0.003040
  109  H 11  Z    0.000000   0.000000   0.000000   0.000000   0.000000
  110  H 12  S    0.263783  -0.322844  -0.000016  -0.333983  -0.192828
  111  H 12  S   -0.120966   0.079254   0.000005   0.101256   0.058460
  112  H 12  X    0.005039  -0.006051  -0.006016  -0.003039  -0.007106
  113  H 12  Y   -0.008729   0.010480  -0.003473   0.010616   0.003040
  114  H 12  Z    0.000000   0.000000   0.000000   0.000000   0.000000

                     11         12         13         14         15
                   -0.5004    -0.5004    -0.4899    -0.3295    -0.3295
                     A          A          A          A          A   
    1  C  1  S   -0.000000   0.033121   0.000000   0.000000   0.000000
    2  C  1  S   -0.000000  -0.018825   0.000000   0.000000   0.000000
    3  C  1  X   -0.000004   0.331078   0.000000   0.000000   0.000000
    4  C  1  Y    0.394739  -0.000005   0.000000   0.000000   0.000000
    5  C  1  Z    0.000000   0.000000   0.317704  -0.000002  -0.472800
    6  C  1  X    0.000001  -0.120983   0.000000   0.000000   0.000000
    7  C  1  Y   -0.069054   0.000001   0.000000   0.000000   0.000000
    8  C  1  Z    0.000000   0.000000  -0.019190  -0.000000  -0.045425
    9  C  1 XX    0.000000  -0.028096   0.000000   0.000000   0.000000
   10  C  1 YY   -0.000000   0.027751   0.000000   0.000000   0.000000
   11  C  1 ZZ    0.000000   0.000345   0.000000   0.000000   0.000000
   12  C  1 XY    0.023438  -0.000000   0.000000   0.000000   0.000000
   13  C  1 XZ    0.000000   0.000000   0.015212  -0.000000  -0.011010
   14  C  1 YZ    0.000000   0.000000   0.000000  -0.028516  -0.000000
   15  C  2  S   -0.028685  -0.016559   0.000000   0.000000   0.000000
   16  C  2  S    0.016300   0.009413   0.000000   0.000000   0.000000
   17  C  2  X    0.027566  -0.378825   0.000000   0.000000   0.000000
   18  C  2  Y   -0.346995   0.027570   0.000000   0.000000   0.000000
   19  C  2  Z    0.000000   0.000000   0.317702   0.409459  -0.236397
   20  C  2  X    0.022484   0.082037   0.000000   0.000000   0.000000
   21  C  2  Y    0.108002   0.022485   0.000000   0.000000   0.000000
   22  C  2  Z    0.000000   0.000000  -0.019190   0.039339  -0.022712
   23  C  2 XX   -0.003152  -0.022118   0.000000   0.000000   0.000000
   24  C  2 YY    0.003451   0.022291   0.000000   0.000000   0.000000
   25  C  2 ZZ   -0.000298  -0.000172   0.000000   0.000000   0.000000
   26  C  2 XY    0.030042   0.003813   0.000000   0.000000   0.000000
   27  C  2 XZ    0.000000   0.000000   0.007606   0.017115   0.018634
   28  C  2 YZ    0.000000   0.000000   0.013174   0.001129  -0.017115
   29  C  3  S    0.028685  -0.016559   0.000000   0.000000   0.000000
   30  C  3  S   -0.016300   0.009413   0.000000   0.000000   0.000000
   31  C  3  X    0.027566   0.378825   0.000000   0.000000   0.000000
   32  C  3  Y    0.346995   0.027570   0.000000   0.000000   0.000000
   33  C  3  Z    0.000000   0.000000   0.317702   0.409459   0.236397
   34  C  3  X    0.022484  -0.082037   0.000000   0.000000   0.000000
   35  C  3  Y   -0.108002   0.022485   0.000000   0.000000   0.000000
   36  C  3  Z    0.000000   0.000000  -0.019190   0.039339   0.022712
   37  C  3 XX    0.003152  -0.022118   0.000000   0.000000   0.000000
   38  C  3 YY   -0.003451   0.022291   0.000000   0.000000   0.000000
   39  C  3 ZZ    0.000298  -0.000172   0.000000   0.000000   0.000000
   40  C  3 XY    0.030042  -0.003813   0.000000   0.000000   0.000000
   41  C  3 XZ    0.000000   0.000000  -0.007606  -0.017115   0.018634
   42  C  3 YZ    0.000000   0.000000   0.013174   0.001129   0.017115
   43  C  4  S    0.000000   0.033121   0.000000   0.000000   0.000000
   44  C  4  S    0.000000  -0.018825   0.000000   0.000000   0.000000
   45  C  4  X   -0.000004  -0.331078   0.000000   0.000000   0.000000
   46  C  4  Y   -0.394739  -0.000005   0.000000   0.000000   0.000000
   47  C  4  Z    0.000000   0.000000   0.317704  -0.000002   0.472800
   48  C  4  X    0.000000   0.120983   0.000000   0.000000   0.000000
   49  C  4  Y    0.069054   0.000001   0.000000   0.000000   0.000000
   50  C  4  Z    0.000000   0.000000  -0.019190  -0.000000   0.045425
   51  C  4 XX   -0.000000  -0.028096   0.000000   0.000000   0.000000
   52  C  4 YY    0.000000   0.027751   0.000000   0.000000   0.000000
   53  C  4 ZZ   -0.000000   0.000345   0.000000   0.000000   0.000000
   54  C  4 XY    0.023438   0.000000   0.000000   0.000000   0.000000
   55  C  4 XZ    0.000000   0.000000  -0.015212   0.000000  -0.011010
   56  C  4 YZ    0.000000   0.000000   0.000000  -0.028516   0.000000
   57  C  5  S   -0.028682  -0.016561   0.000000   0.000000   0.000000
   58  C  5  S    0.016302   0.009412   0.000000   0.000000   0.000000
   59  C  5  X   -0.027566   0.378822   0.000000   0.000000   0.000000
   60  C  5  Y    0.346991  -0.027561   0.000000   0.000000   0.000000
   61  C  5  Z    0.000000   0.000000   0.317706  -0.409454   0.236403
   62  C  5  X   -0.022485  -0.082037   0.000000   0.000000   0.000000
   63  C  5  Y   -0.108002  -0.022487   0.000000   0.000000   0.000000
   64  C  5  Z    0.000000   0.000000  -0.019190  -0.039338   0.022713
   65  C  5 XX   -0.003153  -0.022118   0.000000   0.000000   0.000000
   66  C  5 YY    0.003451   0.022291   0.000000   0.000000   0.000000
   67  C  5 ZZ   -0.000299  -0.000172   0.000000   0.000000   0.000000
   68  C  5 XY    0.030042   0.003813   0.000000   0.000000   0.000000
   69  C  5 XZ    0.000000   0.000000  -0.007606   0.017115   0.018634
   70  C  5 YZ    0.000000   0.000000  -0.013174   0.001129  -0.017115
   71  C  6  S    0.028682  -0.016561   0.000000   0.000000   0.000000
   72  C  6  S   -0.016302   0.009412   0.000000   0.000000   0.000000
   73  C  6  X   -0.027566  -0.378822   0.000000   0.000000   0.000000
   74  C  6  Y   -0.346991  -0.027561   0.000000   0.000000   0.000000
   75  C  6  Z    0.000000   0.000000   0.317706  -0.409454  -0.236403
   76  C  6  X   -0.022485   0.082037   0.000000   0.000000   0.000000
   77  C  6  Y    0.108002  -0.022486   0.000000   0.000000   0.000000
   78  C  6  Z    0.000000   0.000000  -0.019190  -0.039338  -0.022713
   79  C  6 XX    0.003153  -0.022118   0.000000   0.000000   0.000000
   80  C  6 YY   -0.003451   0.022291   0.000000   0.000000   0.000000
   81  C  6 ZZ    0.000299  -0.000172   0.000000   0.000000   0.000000
   82  C  6 XY    0.030042  -0.003813   0.000000   0.000000   0.000000
   83  C  6 XZ    0.000000   0.000000   0.007606  -0.017115   0.018634
   84  C  6 YZ    0.000000   0.000000  -0.013174   0.001129   0.017115
   85  H  7  S    0.000005  -0.366810   0.000000   0.000000   0.000000
   86  H  7  S   -0.000001   0.035943   0.000000   0.000000   0.000000
   87  H  7  X    0.000000  -0.009703   0.000000   0.000000   0.000000
   88  H  7  Y    0.009208  -0.000000   0.000000   0.000000   0.000000
   89  H  7  Z    0.000000   0.000000   0.008366  -0.000000  -0.012452
   90  H  8  S    0.317667   0.183402   0.000000   0.000000   0.000000
   91  H  8  S   -0.031128  -0.017970   0.000000   0.000000   0.000000
   92  H  8  X    0.008189  -0.004480   0.000000   0.000000   0.000000
   93  H  8  Y    0.004975   0.008189   0.000000   0.000000   0.000000
   94  H  8  Z    0.000000   0.000000   0.008366   0.010784  -0.006226
   95  H  9  S   -0.317667   0.183402   0.000000   0.000000   0.000000
   96  H  9  S    0.031128  -0.017970   0.000000   0.000000   0.000000
   97  H  9  X    0.008189   0.004480   0.000000   0.000000   0.000000
   98  H  9  Y   -0.004975   0.008189   0.000000   0.000000   0.000000
   99  H  9  Z    0.000000   0.000000   0.008366   0.010784   0.006226
  100  H 10  S   -0.000005  -0.366810   0.000000   0.000000   0.000000
  101  H 10  S    0.000001   0.035943   0.000000   0.000000   0.000000
  102  H 10  X    0.000000   0.009703   0.000000   0.000000   0.000000
  103  H 10  Y   -0.009208  -0.000000   0.000000   0.000000   0.000000
  104  H 10  Z    0.000000   0.000000   0.008366  -0.000000   0.012452
  105  H 11  S    0.317666   0.183407   0.000000   0.000000   0.000000
  106  H 11  S   -0.031127  -0.017972   0.000000   0.000000   0.000000
  107  H 11  X   -0.008189   0.004480   0.000000   0.000000   0.000000
  108  H 11  Y   -0.004975  -0.008189   0.000000   0.000000   0.000000
  109  H 11  Z    0.000000   0.000000   0.008366  -0.010784   0.006226
  110  H 12  S   -0.317666   0.183407   0.000000   0.000000   0.000000
  111  H 12  S    0.031127  -0.017972   0.000000   0.000000   0.000000
  112  H 12  X   -0.008189  -0.004480   0.000000   0.000000   0.000000
  113  H 12  Y    0.004975  -0.008189   0.000000   0.000000   0.000000
  114  H 12  Z    0.000000   0.000000   0.008366  -0.010784  -0.006226

                     16         17         18         19         20
                    0.1341     0.1341     0.2253     0.2707     0.2707
                     A          A          A          A          A   
    1  C  1  S    0.000000   0.000000  -0.131589   0.000001  -0.137661
    2  C  1  S    0.000000   0.000000  -0.657281  -0.000004  -1.573912
    3  C  1  X    0.000000   0.000000   0.156230  -0.000001   0.263360
    4  C  1  Y    0.000000   0.000000  -0.000001  -0.000873  -0.000000
    5  C  1  Z    0.463416  -0.000001   0.000000   0.000000   0.000000
    6  C  1  X    0.000000   0.000000   0.307726  -0.000006   0.714936
    7  C  1  Y    0.000000   0.000000   0.000002  -0.420950   0.000004
    8  C  1  Z    0.372242  -0.000002   0.000000   0.000000   0.000000
    9  C  1 XX    0.000000   0.000000   0.006507   0.000000  -0.013792
   10  C  1 YY    0.000000   0.000000  -0.008368  -0.000000   0.002013
   11  C  1 ZZ    0.000000   0.000000   0.001862   0.000000   0.011780
   12  C  1 XY    0.000000   0.000000  -0.000000  -0.008211   0.000000
   13  C  1 XZ   -0.011833   0.000000   0.000000   0.000000   0.000000
   14  C  1 YZ   -0.000000   0.037625   0.000000   0.000000   0.000000
   15  C  2  S    0.000000   0.000000  -0.131591  -0.119219  -0.068829
   16  C  2  S    0.000000   0.000000  -0.657275  -1.363057  -0.786978
   17  C  2  X    0.000000   0.000000   0.078114   0.114416   0.065185
   18  C  2  Y    0.000000   0.000000   0.135297   0.197302   0.114414
   19  C  2  Z   -0.231706  -0.401332   0.000000   0.000000   0.000000
   20  C  2  X    0.000000   0.000000   0.153865   0.491847  -0.137003
   21  C  2  Y    0.000000   0.000000   0.266507   0.430960   0.491838
   22  C  2  Z   -0.186119  -0.322373   0.000000   0.000000   0.000000
   23  C  2 XX    0.000000   0.000000  -0.004649   0.001400  -0.006303
   24  C  2 YY    0.000000   0.000000   0.002788  -0.011602   0.000413
   25  C  2 ZZ    0.000000   0.000000   0.001861   0.010202   0.005890
   26  C  2 XY    0.000000   0.000000   0.007437  -0.004791  -0.007507
   27  C  2 XZ   -0.025261   0.021416   0.000000   0.000000   0.000000
   28  C  2 YZ    0.021416  -0.000532   0.000000   0.000000   0.000000
   29  C  3  S    0.000000   0.000000  -0.131591  -0.119219   0.068829
   30  C  3  S    0.000000   0.000000  -0.657275  -1.363056   0.786979
   31  C  3  X    0.000000   0.000000  -0.078114  -0.114416   0.065185
   32  C  3  Y    0.000000   0.000000   0.135297   0.197302  -0.114414
   33  C  3  Z   -0.231706   0.401332   0.000000   0.000000   0.000000
   34  C  3  X    0.000000   0.000000  -0.153865  -0.491847  -0.137003
   35  C  3  Y    0.000000   0.000000   0.266507   0.430960  -0.491838
   36  C  3  Z   -0.186119   0.322374   0.000000   0.000000   0.000000
   37  C  3 XX    0.000000   0.000000  -0.004649   0.001400   0.006303
   38  C  3 YY    0.000000   0.000000   0.002788  -0.011602  -0.000413
   39  C  3 ZZ    0.000000   0.000000   0.001861   0.010202  -0.005890
   40  C  3 XY    0.000000   0.000000  -0.007437   0.004791  -0.007507
   41  C  3 XZ    0.025261   0.021416   0.000000   0.000000   0.000000
   42  C  3 YZ    0.021416   0.000532   0.000000   0.000000   0.000000
   43  C  4  S    0.000000   0.000000  -0.131589   0.000001   0.137661
   44  C  4  S    0.000000   0.000000  -0.657281  -0.000003   1.573912
   45  C  4  X    0.000000   0.000000  -0.156230   0.000001   0.263360
   46  C  4  Y    0.000000   0.000000  -0.000001  -0.000873   0.000000
   47  C  4  Z    0.463416   0.000000   0.000000   0.000000   0.000000
   48  C  4  X    0.000000   0.000000  -0.307726   0.000006   0.714936
   49  C  4  Y    0.000000   0.000000   0.000002  -0.420950  -0.000003
   50  C  4  Z    0.372242   0.000002   0.000000   0.000000   0.000000
   51  C  4 XX    0.000000   0.000000   0.006507   0.000000   0.013792
   52  C  4 YY    0.000000   0.000000  -0.008368  -0.000000  -0.002013
   53  C  4 ZZ    0.000000   0.000000   0.001862   0.000000  -0.011780
   54  C  4 XY    0.000000   0.000000   0.000000   0.008211   0.000000
   55  C  4 XZ    0.011833   0.000000   0.000000   0.000000   0.000000
   56  C  4 YZ   -0.000000  -0.037625   0.000000   0.000000   0.000000
   57  C  5  S    0.000000   0.000000  -0.131591   0.119216   0.068828
   58  C  5  S    0.000000   0.000000  -0.657285   1.363051   0.786978
   59  C  5  X    0.000000   0.000000  -0.078114   0.114414   0.065185
   60  C  5  Y    0.000000   0.000000  -0.135299   0.197300   0.114416
   61  C  5  Z   -0.231710  -0.401327   0.000000   0.000000   0.000000
   62  C  5  X    0.000000   0.000000  -0.153868   0.491843  -0.136993
   63  C  5  Y    0.000000   0.000000  -0.266510   0.430952   0.491840
   64  C  5  Z   -0.186123  -0.322371   0.000000   0.000000   0.000000
   65  C  5 XX    0.000000   0.000000  -0.004650  -0.001400   0.006303
   66  C  5 YY    0.000000   0.000000   0.002788   0.011602  -0.000413
   67  C  5 ZZ    0.000000   0.000000   0.001861  -0.010202  -0.005890
   68  C  5 XY    0.000000   0.000000   0.007437   0.004791   0.007507
   69  C  5 XZ    0.025261  -0.021416   0.000000   0.000000   0.000000
   70  C  5 YZ   -0.021416   0.000532   0.000000   0.000000   0.000000
   71  C  6  S    0.000000   0.000000  -0.131591   0.119216  -0.068828
   72  C  6  S    0.000000   0.000000  -0.657285   1.363051  -0.786979
   73  C  6  X    0.000000   0.000000   0.078114  -0.114414   0.065186
   74  C  6  Y    0.000000   0.000000  -0.135299   0.197300  -0.114416
   75  C  6  Z   -0.231710   0.401328   0.000000   0.000000   0.000000
   76  C  6  X    0.000000   0.000000   0.153868  -0.491843  -0.136993
   77  C  6  Y    0.000000   0.000000  -0.266510   0.430951  -0.491840
   78  C  6  Z   -0.186123   0.322371   0.000000   0.000000   0.000000
   79  C  6 XX    0.000000   0.000000  -0.004650  -0.001400  -0.006303
   80  C  6 YY    0.000000   0.000000   0.002788   0.011602   0.000413
   81  C  6 ZZ    0.000000   0.000000   0.001861  -0.010202   0.005890
   82  C  6 XY    0.000000   0.000000  -0.007437  -0.004791   0.007507
   83  C  6 XZ   -0.025261  -0.021416   0.000000   0.000000   0.000000
   84  C  6 YZ   -0.021416  -0.000532   0.000000   0.000000   0.000000
   85  H  7  S    0.000000   0.000000   0.045645  -0.000000  -0.011857
   86  H  7  S    0.000000   0.000000   0.993812  -0.000006   1.834466
   87  H  7  X    0.000000   0.000000   0.011776  -0.000000   0.023823
   88  H  7  Y    0.000000   0.000000   0.000000   0.003094  -0.000000
   89  H  7  Z    0.016623  -0.000000   0.000000   0.000000   0.000000
   90  H  8  S    0.000000   0.000000   0.045644  -0.010270  -0.005930
   91  H  8  S    0.000000   0.000000   0.993818   1.588699   0.917214
   92  H  8  X    0.000000   0.000000   0.005888   0.008976   0.008276
   93  H  8  Y    0.000000   0.000000   0.010198   0.018641   0.008975
   94  H  8  Z   -0.008311  -0.014396   0.000000   0.000000   0.000000
   95  H  9  S    0.000000   0.000000   0.045644  -0.010270   0.005930
   96  H  9  S    0.000000   0.000000   0.993818   1.588698  -0.917215
   97  H  9  X    0.000000   0.000000  -0.005888  -0.008976   0.008276
   98  H  9  Y    0.000000   0.000000   0.010198   0.018641  -0.008975
   99  H  9  Z   -0.008311   0.014396   0.000000   0.000000   0.000000
  100  H 10  S    0.000000   0.000000   0.045645  -0.000000   0.011857
  101  H 10  S    0.000000   0.000000   0.993812  -0.000007  -1.834466
  102  H 10  X    0.000000   0.000000  -0.011776   0.000000   0.023823
  103  H 10  Y    0.000000   0.000000   0.000000   0.003094   0.000000
  104  H 10  Z    0.016623   0.000000   0.000000   0.000000   0.000000
  105  H 11  S    0.000000   0.000000   0.045645   0.010270   0.005930
  106  H 11  S    0.000000   0.000000   0.993831  -1.588677  -0.917223
  107  H 11  X    0.000000   0.000000  -0.005888   0.008976   0.008276
  108  H 11  Y    0.000000   0.000000  -0.010198   0.018640   0.008976
  109  H 11  Z   -0.008312  -0.014396   0.000000   0.000000   0.000000
  110  H 12  S    0.000000   0.000000   0.045645   0.010270  -0.005930
  111  H 12  S    0.000000   0.000000   0.993831  -1.588677   0.917224
  112  H 12  X    0.000000   0.000000   0.005888  -0.008976   0.008276
  113  H 12  Y    0.000000   0.000000  -0.010198   0.018640  -0.008976
  114  H 12  Z   -0.008312   0.014396   0.000000   0.000000   0.000000

                     21         22         23         24         25
                    0.2957     0.2957     0.3034     0.3436     0.4470
                     A          A          A          A          A   
    1  C  1  S   -0.281610   0.000003  -0.175940   0.000000   0.313918
    2  C  1  S   -1.807202  -0.000029   1.911570   0.000000   3.326691
    3  C  1  X    0.131311  -0.000001   0.076513   0.000000   0.260678
    4  C  1  Y    0.000003  -0.053363   0.000001   0.000000  -0.000022
    5  C  1  Z    0.000000   0.000000   0.000000  -0.348556   0.000000
    6  C  1  X    1.130410  -0.000030   2.301111   0.000000   1.948851
    7  C  1  Y    0.000003  -0.389718  -0.000005   0.000000  -0.000122
    8  C  1  Z    0.000000   0.000000   0.000000  -0.578771   0.000000
    9  C  1 XX   -0.018887   0.000000  -0.004507   0.000000  -0.008778
   10  C  1 YY    0.011605  -0.000001   0.022741   0.000000   0.017856
   11  C  1 ZZ    0.007282   0.000001  -0.018234   0.000000  -0.009079
   12  C  1 XY    0.000000   0.014128   0.000000   0.000000   0.000001
   13  C  1 XZ    0.000000   0.000000   0.000000   0.016307   0.000000
   14  C  1 YZ    0.000000   0.000000   0.000000   0.000000   0.000000
   15  C  2  S    0.140804  -0.243884   0.175937   0.000000  -0.156966
   16  C  2  S    0.903600  -1.565090  -1.911525   0.000000  -1.663447
   17  C  2  X   -0.072849   0.033754  -0.038258   0.000000  -0.059916
   18  C  2  Y   -0.033749   0.111824  -0.066262   0.000000  -0.115917
   19  C  2  Z    0.000000   0.000000   0.000000   0.348555   0.000000
   20  C  2  X   -0.574894   0.320720  -1.150542   0.000000   0.420790
   21  C  2  Y   -0.320720   0.945273  -1.992818   0.000000  -1.368125
   22  C  2  Z    0.000000   0.000000   0.000000   0.578768   0.000000
   23  C  2 XX    0.007186   0.008747  -0.015929   0.000000  -0.023285
   24  C  2 YY   -0.003545  -0.015053  -0.002305   0.000000   0.018747
   25  C  2 ZZ   -0.003641   0.006306   0.018234   0.000000   0.004539
   26  C  2 XY    0.013741  -0.009671   0.013624   0.000000  -0.005135
   27  C  2 XZ    0.000000   0.000000   0.000000  -0.008154   0.000000
   28  C  2 YZ    0.000000   0.000000   0.000000  -0.014123   0.000000
   29  C  3  S    0.140804   0.243884  -0.175937   0.000000  -0.156965
   30  C  3  S    0.903600   1.565090   1.911525   0.000000  -1.663446
   31  C  3  X    0.072849   0.033754  -0.038258   0.000000   0.059916
   32  C  3  Y   -0.033749  -0.111824   0.066262   0.000000  -0.115917
   33  C  3  Z    0.000000   0.000000   0.000000  -0.348555   0.000000
   34  C  3  X    0.574894   0.320720  -1.150542   0.000000  -0.420791
   35  C  3  Y   -0.320720  -0.945273   1.992818   0.000000  -1.368125
   36  C  3  Z    0.000000   0.000000   0.000000  -0.578768   0.000000
   37  C  3 XX    0.007186  -0.008747   0.015929   0.000000  -0.023285
   38  C  3 YY   -0.003545   0.015053   0.002305   0.000000   0.018747
   39  C  3 ZZ   -0.003641  -0.006306  -0.018234   0.000000   0.004539
   40  C  3 XY   -0.013741  -0.009671   0.013624   0.000000   0.005135
   41  C  3 XZ    0.000000   0.000000   0.000000  -0.008154   0.000000
   42  C  3 YZ    0.000000   0.000000   0.000000   0.014123   0.000000
   43  C  4  S   -0.281610  -0.000003   0.175940   0.000000   0.313918
   44  C  4  S   -1.807202   0.000030  -1.911570   0.000000   3.326691
   45  C  4  X   -0.131311  -0.000000   0.076513   0.000000  -0.260678
   46  C  4  Y    0.000003   0.053363  -0.000001   0.000000  -0.000022
   47  C  4  Z    0.000000   0.000000   0.000000   0.348556   0.000000
   48  C  4  X   -1.130410  -0.000030   2.301111   0.000000  -1.948851
   49  C  4  Y    0.000003   0.389718   0.000005   0.000000  -0.000121
   50  C  4  Z    0.000000   0.000000   0.000000   0.578771   0.000000
   51  C  4 XX   -0.018887  -0.000000   0.004507   0.000000  -0.008778
   52  C  4 YY    0.011605   0.000001  -0.022741   0.000000   0.017856
   53  C  4 ZZ    0.007282  -0.000001   0.018234   0.000000  -0.009079
   54  C  4 XY   -0.000000   0.014128   0.000000   0.000000  -0.000001
   55  C  4 XZ    0.000000   0.000000   0.000000   0.016307   0.000000
   56  C  4 YZ    0.000000   0.000000   0.000000  -0.000000   0.000000
   57  C  5  S    0.140804  -0.243877  -0.175944   0.000000  -0.156954
   58  C  5  S    0.903606  -1.565134   1.911523   0.000000  -1.663229
   59  C  5  X    0.072850  -0.033751  -0.038259   0.000000   0.059931
   60  C  5  Y    0.033754  -0.111823  -0.066267   0.000000   0.115898
   61  C  5  Z    0.000000   0.000000   0.000000  -0.348558   0.000000
   62  C  5  X    0.574898  -0.320693  -1.150560   0.000000  -0.420698
   63  C  5  Y    0.320733  -0.945218  -1.992863   0.000000   1.368056
   64  C  5  Z    0.000000   0.000000   0.000000  -0.578776   0.000000
   65  C  5 XX    0.007186   0.008746   0.015929   0.000000  -0.023287
   66  C  5 YY   -0.003545  -0.015053   0.002305   0.000000   0.018748
   67  C  5 ZZ   -0.003641   0.006307  -0.018234   0.000000   0.004539
   68  C  5 XY    0.013741  -0.009671  -0.013624   0.000000  -0.005130
   69  C  5 XZ    0.000000   0.000000   0.000000  -0.008154   0.000000
   70  C  5 YZ    0.000000   0.000000   0.000000  -0.014123   0.000000
   71  C  6  S    0.140804   0.243877   0.175944   0.000000  -0.156954
   72  C  6  S    0.903606   1.565134  -1.911523   0.000000  -1.663228
   73  C  6  X   -0.072850  -0.033751  -0.038259   0.000000  -0.059931
   74  C  6  Y    0.033754   0.111823   0.066267   0.000000   0.115898
   75  C  6  Z    0.000000   0.000000   0.000000   0.348558   0.000000
   76  C  6  X   -0.574898  -0.320693  -1.150560   0.000000   0.420698
   77  C  6  Y    0.320733   0.945218   1.992863   0.000000   1.368056
   78  C  6  Z    0.000000   0.000000   0.000000   0.578776   0.000000
   79  C  6 XX    0.007186  -0.008746  -0.015929   0.000000  -0.023287
   80  C  6 YY   -0.003545   0.015053  -0.002305   0.000000   0.018748
   81  C  6 ZZ   -0.003641  -0.006307   0.018234   0.000000   0.004539
   82  C  6 XY   -0.013741  -0.009671  -0.013624   0.000000   0.005130
   83  C  6 XZ    0.000000   0.000000   0.000000  -0.008154   0.000000
   84  C  6 YZ    0.000000   0.000000   0.000000   0.014123   0.000000
   85  H  7  S   -0.030841  -0.000001   0.062189   0.000000   0.024356
   86  H  7  S    2.100338  -0.000021   1.736917   0.000000   0.989462
   87  H  7  X    0.023364  -0.000000   0.006524   0.000000   0.008230
   88  H  7  Y    0.000000  -0.007252  -0.000000   0.000000  -0.000001
   89  H  7  Z    0.000000   0.000000   0.000000  -0.019369   0.000000
   90  H  8  S    0.015420  -0.026710  -0.062189   0.000000  -0.012181
   91  H  8  S   -1.050158   1.818985  -1.736925   0.000000  -0.494729
   92  H  8  X   -0.011280   0.006977  -0.003262   0.000000   0.015290
   93  H  8  Y   -0.006976   0.019336  -0.005650   0.000000  -0.013578
   94  H  8  Z    0.000000   0.000000   0.000000   0.019369   0.000000
   95  H  9  S    0.015420   0.026710   0.062189   0.000000  -0.012181
   96  H  9  S   -1.050158  -1.818985   1.736925   0.000000  -0.494728
   97  H  9  X    0.011280   0.006977  -0.003262   0.000000  -0.015290
   98  H  9  Y   -0.006976  -0.019336   0.005650   0.000000  -0.013578
   99  H  9  Z    0.000000   0.000000   0.000000  -0.019369   0.000000
  100  H 10  S   -0.030841   0.000001  -0.062189   0.000000   0.024356
  101  H 10  S    2.100338   0.000021  -1.736917   0.000000   0.989462
  102  H 10  X   -0.023364  -0.000000   0.006524   0.000000  -0.008230
  103  H 10  Y    0.000000   0.007252   0.000000   0.000000  -0.000001
  104  H 10  Z    0.000000   0.000000   0.000000   0.019369   0.000000
  105  H 11  S    0.015421  -0.026712   0.062188   0.000000  -0.012164
  106  H 11  S   -1.050180   1.818932   1.736984   0.000000  -0.494763
  107  H 11  X    0.011280  -0.006976  -0.003262   0.000000  -0.015288
  108  H 11  Y    0.006977  -0.019336  -0.005651   0.000000   0.013580
  109  H 11  Z    0.000000   0.000000   0.000000  -0.019369   0.000000
  110  H 12  S    0.015421   0.026712  -0.062188   0.000000  -0.012164
  111  H 12  S   -1.050180  -1.818931  -1.736984   0.000000  -0.494763
[...]
   63  C  5  Y   -0.904465  -0.751914   0.481402
   64  C  5  Z    0.000000   0.000000   0.000000
   65  C  5 XX    0.044900  -0.279251  -0.383798
   66  C  5 YY   -0.262083   0.276512   0.388529
   67  C  5 ZZ    0.217183   0.002739  -0.004731
   68  C  5 XY   -0.639342  -0.445931   0.193994
   69  C  5 XZ    0.000000   0.000000   0.000000
   70  C  5 YZ    0.000000   0.000000   0.000000
   71  C  6  S    1.913028   1.263160   2.187734
   72  C  6  S   -3.390786  -0.355332  -0.614975
   73  C  6  X   -0.392993  -0.021686  -0.138112
   74  C  6  Y    0.449228   0.138133   0.181156
   75  C  6  Z    0.000000   0.000000   0.000000
   76  C  6  X   -0.697849   0.386674  -0.751788
   77  C  6  Y    0.904465   0.751914   0.481402
   78  C  6  Z    0.000000   0.000000   0.000000
   79  C  6 XX   -0.044900   0.279251  -0.383798
   80  C  6 YY    0.262083  -0.276512   0.388529
   81  C  6 ZZ   -0.217183  -0.002739  -0.004731
   82  C  6 XY   -0.639342  -0.445931  -0.193994
   83  C  6 XZ    0.000000   0.000000   0.000000
   84  C  6 YZ    0.000000   0.000000   0.000000
   85  H  7  S   -0.000388  -1.531071   0.000037
   86  H  7  S    0.000146   0.249276  -0.000018
   87  H  7  X   -0.000127  -0.641320   0.000016
   88  H  7  Y   -0.212294  -0.000005  -0.165784
   89  H  7  Z    0.000000   0.000000   0.000000
   90  H  8  S    1.733000  -0.765586   1.325998
   91  H  8  S   -0.609376   0.124657  -0.215897
   92  H  8  X    0.275153  -0.035999   0.349489
   93  H  8  Y    0.688889  -0.349502   0.439560
   94  H  8  Z    0.000000   0.000000   0.000000
   95  H  9  S   -1.733000   0.765586   1.325998
   96  H  9  S    0.609376  -0.124657  -0.215897
   97  H  9  X    0.275153  -0.035999  -0.349489
   98  H  9  Y   -0.688889   0.349502   0.439560
   99  H  9  Z    0.000000   0.000000   0.000000
  100  H 10  S    0.000387   1.531071   0.000037
  101  H 10  S   -0.000146  -0.249276  -0.000018
  102  H 10  X   -0.000127  -0.641320  -0.000016
  103  H 10  Y    0.212294   0.000005  -0.165784
  104  H 10  Z    0.000000   0.000000   0.000000
  105  H 11  S    1.732116   0.765664  -1.326038
  106  H 11  S   -0.609054  -0.124677   0.215918
  107  H 11  X   -0.275009  -0.036009   0.349504
  108  H 11  Y   -0.688624  -0.349529   0.439573
  109  H 11  Z    0.000000   0.000000   0.000000
  110  H 12  S   -1.732116  -0.765664  -1.326038
  111  H 12  S    0.609054   0.124677   0.215918
  112  H 12  X   -0.275009  -0.036009  -0.349504
  113  H 12  Y    0.688624   0.349529   0.439573
  114  H 12  Z    0.000000   0.000000   0.000000
 ...... END OF RHF CALCULATION ......
 STEP CPU TIME =     2.11 TOTAL CPU TIME =         12.9 (      0.2 MIN)
 TOTAL WALL CLOCK TIME=         13.0 SECONDS, CPU UTILIZATION IS    99.58%

     ----------------------------------------------------------------
     PROPERTY VALUES FOR THE RHF   SELF-CONSISTENT FIELD WAVEFUNCTION
     ----------------------------------------------------------------

          -----------------
          ENERGY COMPONENTS
          -----------------

         WAVEFUNCTION NORMALIZATION =       1.0000000000

                ONE ELECTRON ENERGY =    -259.8209486884
                TWO ELECTRON ENERGY =     119.7014461385
           NUCLEAR REPULSION ENERGY =     103.6140010797
                                      ------------------
                       TOTAL ENERGY =     -36.5055014703

 ELECTRON-ELECTRON POTENTIAL ENERGY =     119.7014461385
  NUCLEUS-ELECTRON POTENTIAL ENERGY =    -288.4416983480
   NUCLEUS-NUCLEUS POTENTIAL ENERGY =     103.6140010797
                                      ------------------
             TOTAL POTENTIAL ENERGY =     -65.1262511298
               TOTAL KINETIC ENERGY =      28.6207496595
                 VIRIAL RATIO (V/T) =       2.2754907508

  ...... PI ENERGY ANALYSIS ......

 ENERGY ANALYSIS:
            FOCK ENERGY=    -20.4180583248
          BARE H ENERGY=   -259.8209486884
     ELECTRONIC ENERGY =   -140.1195035066
         KINETIC ENERGY=     28.6207496595
          N-N REPULSION=    103.6140010797
           TOTAL ENERGY=    -36.5055024269
        SIGMA PART(1+2)=   -113.8679700867
               (K,V1,2)=     22.8844118673   -232.5000211699     95.7476392160
           PI PART(1+2)=    -26.2515334199
               (K,V1,2)=      5.7363377923    -55.9416771780     23.9538059658
  SIGMA SKELETON, ERROR=    -10.2539690070      0.0000000000
             MIXED PART= 0.00000E+00 0.00000E+00 0.00000E+00 0.00000E+00
 ...... END OF PI ENERGY ANALYSIS ......

          ---------------------------------------
          MULLIKEN AND LOWDIN POPULATION ANALYSES
          ---------------------------------------

     ATOMIC MULLIKEN POPULATION IN EACH MOLECULAR ORBITAL

                      1          2          3          4          5

                  2.000000   2.000000   2.000000   2.000000   2.000000

    1             0.306433   0.094418   0.509733   0.285365   0.241612
    2             0.306427   0.405911   0.198245   0.252548   0.274432
    3             0.306427   0.405911   0.198245   0.252548   0.274432
    4             0.306433   0.094418   0.509733   0.285365   0.241612
    5             0.306439   0.405898   0.198250   0.252555   0.274424
    6             0.306439   0.405898   0.198250   0.252555   0.274424
    7             0.026900   0.000386   0.062129   0.138876   0.000810
    8             0.026900   0.046694   0.015822   0.035328   0.104362
    9             0.026900   0.046694   0.015822   0.035328   0.104362
   10             0.026900   0.000386   0.062129   0.138876   0.000810
   11             0.026901   0.046693   0.015822   0.035328   0.104360
   12             0.026901   0.046693   0.015822   0.035328   0.104360

                      6          7          8          9         10

                  2.000000   2.000000   2.000000   2.000000   2.000000

    1             0.231601   0.159467   0.331423   0.033980   0.408687
    2             0.231597   0.159470   0.331406   0.315020   0.127658
    3             0.231597   0.159470   0.331406   0.315020   0.127658
    4             0.231601   0.159467   0.331423   0.033980   0.408687
    5             0.231601   0.159469   0.331412   0.315010   0.127664
    6             0.231601   0.159469   0.331412   0.315010   0.127664
    7             0.101735   0.173861   0.001920   0.000093   0.223904
    8             0.101732   0.173867   0.001920   0.167951   0.056041
    9             0.101732   0.173867   0.001920   0.167951   0.056041
   10             0.101735   0.173861   0.001920   0.000093   0.223904
   11             0.101734   0.173866   0.001920   0.167946   0.056046
   12             0.101734   0.173866   0.001920   0.167946   0.056046

                     11         12         13         14         15

                  2.000000   2.000000   2.000000   2.000000   2.000000

    1             0.267462   0.193312   0.331377   0.013748   0.648206
    2             0.211852   0.248926   0.331373   0.489599   0.172358
    3             0.211852   0.248927   0.331373   0.489599   0.172359
    4             0.267462   0.193312   0.331377   0.013748   0.648206
    5             0.211846   0.248922   0.331381   0.489584   0.172366
    6             0.211846   0.248922   0.331381   0.489584   0.172366
    7             0.001942   0.203951   0.001956   0.000000   0.004713
    8             0.153449   0.052443   0.001956   0.003535   0.001178
    9             0.153449   0.052443   0.001956   0.003535   0.001178
   10             0.001942   0.203951   0.001956   0.000000   0.004713
   11             0.153448   0.052446   0.001956   0.003534   0.001178
   12             0.153448   0.052446   0.001956   0.003534   0.001178

               ----- POPULATIONS IN EACH AO -----
                             MULLIKEN      LOWDIN
              1  C  1  S      1.50739     0.45269
              2  C  1  S     -0.43084     0.12933
              3  C  1  X      1.19703     0.86381
              4  C  1  Y      1.13550     0.77732
              5  C  1  Z      0.94604     0.66435
              6  C  1  X     -0.21260     0.22433
              7  C  1  Y     -0.18991     0.17492
              8  C  1  Z      0.02873     0.27682
              9  C  1 XX      0.00413     0.22769
             10  C  1 YY      0.02950     0.21010
             11  C  1 ZZ      0.02331     0.07694
             12  C  1 XY      0.00482     0.06148
             13  C  1 XZ      0.01375     0.00819
             14  C  1 YZ      0.00000     0.03072
             15  C  2  S      1.50739     0.45437
             16  C  2  S     -0.43085     0.12950
             17  C  2  X      1.15088     0.80373
             18  C  2  Y      1.18164     0.83925
             19  C  2  Z      0.94604     0.66435
             20  C  2  X     -0.19558     0.18688
             21  C  2  Y     -0.20693     0.21114
             22  C  2  Z      0.02873     0.27682
             23  C  2 XX      0.00413     0.20635
             24  C  2 YY      0.02485     0.21190
             25  C  2 ZZ      0.02795     0.07718
             26  C  2 XY      0.01152     0.08881
             27  C  2 XZ      0.00705     0.02509
             28  C  2 YZ      0.00000     0.01383
             29  C  3  S      1.50739     0.45437
             30  C  3  S     -0.43085     0.12950
             31  C  3  X      1.15088     0.80373
             32  C  3  Y      1.18164     0.83925
             33  C  3  Z      0.94604     0.66435
             34  C  3  X     -0.19558     0.18688
             35  C  3  Y     -0.20693     0.21114
             36  C  3  Z      0.02873     0.27682
             37  C  3 XX      0.00413     0.20635
             38  C  3 YY      0.02485     0.21190
             39  C  3 ZZ      0.02795     0.07718
             40  C  3 XY      0.01152     0.08881
             41  C  3 XZ      0.00705     0.02509
             42  C  3 YZ      0.00000     0.01383
             43  C  4  S      1.50739     0.45269
             44  C  4  S     -0.43084     0.12933
             45  C  4  X      1.19703     0.86381
             46  C  4  Y      1.13550     0.77732
             47  C  4  Z      0.94604     0.66435
             48  C  4  X     -0.21260     0.22433
             49  C  4  Y     -0.18991     0.17492
             50  C  4  Z      0.02873     0.27682
             51  C  4 XX      0.00413     0.22769
             52  C  4 YY      0.02950     0.21010
             53  C  4 ZZ      0.02331     0.07694
             54  C  4 XY      0.00482     0.06148
             55  C  4 XZ      0.01375     0.00819
             56  C  4 YZ      0.00000     0.03072
             57  C  5  S      1.50739     0.45437
             58  C  5  S     -0.43085     0.12950
             59  C  5  X      1.15088     0.80373
             60  C  5  Y      1.18165     0.83926
             61  C  5  Z      0.94604     0.66435
             62  C  5  X     -0.19558     0.18688
             63  C  5  Y     -0.20693     0.21114
             64  C  5  Z      0.02873     0.27682
             65  C  5 XX      0.00413     0.20635
             66  C  5 YY      0.02485     0.21190
             67  C  5 ZZ      0.02795     0.07718
             68  C  5 XY      0.01152     0.08881
             69  C  5 XZ      0.00705     0.02509
             70  C  5 YZ      0.00000     0.01383
             71  C  6  S      1.50739     0.45437
             72  C  6  S     -0.43085     0.12950
             73  C  6  X      1.15088     0.80373
             74  C  6  Y      1.18165     0.83926
             75  C  6  Z      0.94604     0.66435
             76  C  6  X     -0.19558     0.18688
             77  C  6  Y     -0.20693     0.21114
             78  C  6  Z      0.02873     0.27682
             79  C  6 XX      0.00413     0.20635
             80  C  6 YY      0.02485     0.21190
             81  C  6 ZZ      0.02795     0.07718
             82  C  6 XY      0.01152     0.08881
             83  C  6 XZ      0.00705     0.02509
             84  C  6 YZ      0.00000     0.01383
             85  H  7  S      1.31691     0.60422
             86  H  7  S     -0.40225     0.13301
             87  H  7  X      0.01670     0.04517
             88  H  7  Y      0.00515     0.01730
             89  H  7  Z      0.00667     0.01991
             90  H  8  S      1.31691     0.59811
             91  H  8  S     -0.40225     0.13271
             92  H  8  X      0.00804     0.02353
             93  H  8  Y      0.01381     0.03737
             94  H  8  Z      0.00667     0.01991
             95  H  9  S      1.31691     0.59811
             96  H  9  S     -0.40225     0.13271
             97  H  9  X      0.00804     0.02353
             98  H  9  Y      0.01381     0.03737
             99  H  9  Z      0.00667     0.01991
            100  H 10  S      1.31691     0.60422
            101  H 10  S     -0.40225     0.13301
            102  H 10  X      0.01670     0.04517
            103  H 10  Y      0.00515     0.01730
            104  H 10  Z      0.00667     0.01991
            105  H 11  S      1.31691     0.59811
            106  H 11  S     -0.40225     0.13271
            107  H 11  X      0.00804     0.02353
            108  H 11  Y      0.01381     0.03737
            109  H 11  Z      0.00667     0.01991
            110  H 12  S      1.31691     0.59811
            111  H 12  S     -0.40225     0.13271
            112  H 12  X      0.00804     0.02353
            113  H 12  Y      0.01381     0.03737
            114  H 12  Z      0.00667     0.01991

          ----- MULLIKEN ATOMIC OVERLAP POPULATIONS -----
          (OFF-DIAGONAL ELEMENTS NEED TO BE MULTIPLIED BY 2)

             1           2           3           4           5

    1    2.6010420
    2    0.6217792   2.6010378
    3   -0.0297357   0.6217852   2.6010378
    4   -0.0587338  -0.0297357   0.6217792   2.6010420
    5   -0.0297356  -0.0587323  -0.0297355   0.6217838   2.6010332
    6    0.6217838  -0.0297355  -0.0587323  -0.0297356   0.6217815
    7    0.3883058  -0.0388227   0.0092989   0.0011666   0.0092990
    8   -0.0388224   0.3883050  -0.0388216   0.0092990   0.0011666
    9    0.0092990  -0.0388216   0.3883050  -0.0388224   0.0092989
   10    0.0011666   0.0092989  -0.0388227   0.3883058  -0.0388224
   11    0.0092992   0.0011665   0.0092990  -0.0388231   0.3883052
   12   -0.0388231   0.0092990   0.0011665   0.0092992  -0.0388223

             6           7           8           9          10

    6    2.6010332
    7   -0.0388224   0.6482152
    8    0.0092989  -0.0172893   0.6482156
    9    0.0011666  -0.0005135  -0.0172901   0.6482156
   10    0.0092990   0.0001423  -0.0005135  -0.0172893   0.6482152
   11   -0.0388223  -0.0005135   0.0001423  -0.0005135  -0.0172898
   12    0.3883052  -0.0172898  -0.0005135   0.0001423  -0.0005135

            11          12

   11    0.6482176
   12   -0.0172902   0.6482176

          TOTAL MULLIKEN AND LOWDIN ATOMIC POPULATIONS
       ATOM         MULL.POP.    CHARGE          LOW.POP.     CHARGE
    1 C             4.056825   -0.056825         4.178681   -0.178681
    2 C             4.056824   -0.056824         4.189222   -0.189222
    3 C             4.056824   -0.056824         4.189222   -0.189222
    4 C             4.056825   -0.056825         4.178681   -0.178681
    5 C             4.056820   -0.056820         4.189223   -0.189223
    6 C             4.056820   -0.056820         4.189223   -0.189223
    7 H             0.943177    0.056823         0.819608    0.180392
    8 H             0.943177    0.056823         0.811633    0.188367
    9 H             0.943177    0.056823         0.811633    0.188367
   10 H             0.943177    0.056823         0.819608    0.180392
   11 H             0.943177    0.056823         0.811633    0.188367
   12 H             0.943177    0.056823         0.811633    0.188367

          MULLIKEN SPHERICAL HARMONIC POPULATIONS
       ATOM           S       P       D      F      G      H      I    TOTAL
    1 C             1.08    2.90    0.08   0.00   0.00   0.00   0.00    4.06
    2 C             1.08    2.90    0.08   0.00   0.00   0.00   0.00    4.06
    3 C             1.08    2.90    0.08   0.00   0.00   0.00   0.00    4.06
    4 C             1.08    2.90    0.08   0.00   0.00   0.00   0.00    4.06
    5 C             1.08    2.90    0.08   0.00   0.00   0.00   0.00    4.06
    6 C             1.08    2.90    0.08   0.00   0.00   0.00   0.00    4.06
    7 H             0.91    0.03    0.00   0.00   0.00   0.00   0.00    0.94
    8 H             0.91    0.03    0.00   0.00   0.00   0.00   0.00    0.94
    9 H             0.91    0.03    0.00   0.00   0.00   0.00   0.00    0.94
   10 H             0.91    0.03    0.00   0.00   0.00   0.00   0.00    0.94
   11 H             0.91    0.03    0.00   0.00   0.00   0.00   0.00    0.94
   12 H             0.91    0.03    0.00   0.00   0.00   0.00   0.00    0.94

          -------------------------------
          BOND ORDER AND VALENCE ANALYSIS     BOND ORDER THRESHOLD=0.050
          -------------------------------

                   BOND                       BOND                       BOND
  ATOM PAIR DIST  ORDER      ATOM PAIR DIST  ORDER      ATOM PAIR DIST  ORDER
    1   2  1.408  1.503        1   4  2.816  0.075        1   6  1.408  1.503
    1   7  1.022  0.953        2   3  1.408  1.503        2   5  2.816  0.075
    2   8  1.022  0.953        3   4  1.408  1.503        3   6  2.816  0.075
    3   9  1.022  0.953        4   5  1.408  1.503        4  10  1.022  0.953
    5   6  1.408  1.503        5  11  1.022  0.953        6  12  1.022  0.953

                       TOTAL       BONDED        FREE
      ATOM            VALENCE     VALENCE     VALENCE
    1 C                 4.085       4.085      -0.000
    2 C                 4.085       4.085       0.000
    3 C                 4.085       4.085       0.000
    4 C                 4.085       4.085       0.000
    5 C                 4.085       4.085      -0.000
    6 C                 4.085       4.085      -0.000
    7 H                 0.955       0.955       0.000
    8 H                 0.955       0.955      -0.000
    9 H                 0.955       0.955       0.000
   10 H                 0.955       0.955      -0.000
   11 H                 0.955       0.955       0.000
   12 H                 0.955       0.955      -0.000

          ---------------------
          ELECTROSTATIC MOMENTS
          ---------------------

 POINT   1           X           Y           Z (BOHR)    CHARGE
                 1.313360    2.274808    0.000000       -0.00 (A.U.)
         DX          DY          DZ         /D/  (DEBYE)
    -0.000000   -0.000002    0.000000    0.000002
 ...... END OF PROPERTY EVALUATION ......
 STEP CPU TIME =     0.03 TOTAL CPU TIME =         12.9 (      0.2 MIN)
 TOTAL WALL CLOCK TIME=         13.0 SECONDS, CPU UTILIZATION IS    99.54%
                580000  WORDS OF DYNAMIC MEMORY USED
 EXECUTION OF GAMESS TERMINATED NORMALLY 14:56:51 17-FEB-2022    
 DDI: 263640 bytes (0.3 MB / 0 MWords) used by master data server.

 ----------------------------------------
 CPU timing information for all processes
 ========================================
 0: 12.573 + 0.364 = 12.938
 ----------------------------------------
 ddikick.x: exited gracefully.
----- accounting info -----
Files used on the master node ccp01 were:
-rw-rw-r-- 1 filippi filippi    210607 Feb 17 14:56 ./hf_cc-VDZ.dat
-rw-r--r-- 1 filippi filippi      6085 Feb 17 14:56 ./hf_cc-VDZ.F05
-rw-rw-r-- 1 filippi filippi 128531424 Feb 17 14:56 ./hf_cc-VDZ.F08
-rw-rw-r-- 1 filippi filippi   2454000 Feb 17 14:56 ./hf_cc-VDZ.F10
-rw-r--r-- 1 filippi filippi      6085 Feb 17 14:56 ./hf_cc-VDZ.inp
-rw-rw-r-- 1 filippi filippi    235602 Feb 17 14:56 ./hf_cc-VDZ.out
-rwxrwxr-x 1 filippi filippi       115 Feb 17 14:56 ./hf_cc-VDZ.sh*
-rw-rw-r-- 1 filippi filippi      4548 Feb 17 14:56 ./hf_cc-VDZ.sh.out
Thu 17 Feb 2022 02:56:54 PM CET
0.129u 0.066s 0:16.51 1.0%	0+0k 16+1320io 0pf+0w
