----- GAMESS execution script 'rungms' -----
This job is running on host ccp02
under operating system Linux at Thu Sep 30 11:19:52 CEST 2021
Available scratch disk space (Kbyte units) at beginning of the job is
Filesystem     1K-blocks      Used Available Use% Mounted on
/dev/sda2      848504916 318604372 486729156  40% /local
GAMESS temporary binary files will be written to /local/shepard/tmp.L7OGQzz9TI
GAMESS supplementary output files will be written to /home/shepard/practice_calcs/HNO/gamess
Copying input file cas129_b3lyp_BFD-dan-normf0.inp to your run's scratch directory...

 Distributed Data Interface kickoff program.
 Initiating 4 compute processes on 1 nodes to run the following command:
 /software/gamess_sockets/gamess.Apr2018.x cas129_b3lyp_BFD-dan-normf0 

          ******************************************************
          *         GAMESS VERSION = 14 FEB 2018 (R1)         *
          *             FROM IOWA STATE UNIVERSITY             *
          * M.W.SCHMIDT, K.K.BALDRIDGE, J.A.BOATZ, S.T.ELBERT, *
          *   M.S.GORDON, J.H.JENSEN, S.KOSEKI, N.MATSUNAGA,   *
          *          K.A.NGUYEN, S.J.SU, T.L.WINDUS,           *
          *       TOGETHER WITH M.DUPUIS, J.A.MONTGOMERY       *
          *         J.COMPUT.CHEM.  14, 1347-1363(1993)        *
          **************** 64 BIT LINUX VERSION ****************

  SINCE 1993, STUDENTS AND POSTDOCS WORKING AT IOWA STATE UNIVERSITY
  AND ALSO IN THEIR VARIOUS JOBS AFTER LEAVING ISU HAVE MADE IMPORTANT
  CONTRIBUTIONS TO THE CODE:
     IVANA ADAMOVIC, CHRISTINE AIKENS, YURI ALEXEEV, POOJA ARORA,
     ANDREY ASADCHEV, ROB BELL, PRADIPTA BANDYOPADHYAY, JONATHAN BENTZ,
     BRETT BODE, KURT BRORSEN, CALEB CARLIN, GALINA CHABAN, WEI CHEN,
     CHEOL HO CHOI, PAUL DAY, ALBERT DEFUSCO, NUWAN DESILVA, TIM DUDLEY,
     DMITRI FEDOROV, ALEX FINDLATER, GRAHAM FLETCHER, MARK FREITAG,
     KURT GLAESEMANN, ANASTASIA GUININA,
     DAN KEMP, GRANT MERRILL, NORIYUKI MINEZAWA, JONATHAN MULLIN,
     TAKESHI NAGATA, SEAN NEDD, HEATHER NETZLOFF, BOSILJKA NJEGIC, RYAN OLSON,
     MIKE PAK, BUU PHAM,
     SPENCER PRUITT, LUKE ROSKOP, JIM SHOEMAKER, LYUDMILA SLIPCHENKO,
     TONY SMITH, SAROM SOK LEANG, JIE SONG, TETSUYA TAKETSUGU, SIMON WEBB,
     PENG XU, SOOHAENG YOO, FEDERICO ZAHARIEV

  ADDITIONAL CODE HAS BEEN PROVIDED BY COLLABORATORS IN OTHER GROUPS:
     IOWA STATE UNIVERSITY:
          JOE IVANIC, AARON WEST, LAIMUTIS BYTAUTAS, KLAUS RUEDENBERG
     UNIVERSITY OF TOKYO: KIMIHIKO HIRAO, TAKAHITO NAKAJIMA,
          TAKAO TSUNEDA, MUNEAKI KAMIYA, SUSUMU YANAGISAWA,
          KIYOSHI YAGI, MAHITO CHIBA, SEIKEN TOKURA, NAOAKI KAWAKAMI
     UNIVERSITY OF AARHUS: FRANK JENSEN
     UNIVERSITY OF IOWA: VISVALDAS KAIRYS, HUI LI
     NATIONAL INST. OF STANDARDS AND TECHNOLOGY: WALT STEVENS, DAVID GARMER
     UNIVERSITY OF PISA: BENEDETTA MENNUCCI, JACOPO TOMASI
     UNIVERSITY OF MEMPHIS: HENRY KURTZ, PRAKASHAN KORAMBATH
     UNIVERSITY OF ALBERTA: TOBY ZENG, MARIUSZ KLOBUKOWSKI
     UNIVERSITY OF NEW ENGLAND: MARK SPACKMAN
     MIE UNIVERSITY: HIROAKI UMEDA
     NAT. INST. OF ADVANCED INDUSTRIAL SCIENCE AND TECHNOLOGY: KAZUO KITAURA
     MICHIGAN STATE UNIVERSITY:
          KAROL KOWALSKI, MARTA WLOCH, JEFFREY GOUR, JESSE LUTZ,
          WEI LI, PIOTR PIECUCH
     UNIVERSITY OF SILESIA: MONIKA MUSIAL, STANISLAW KUCHARSKI
     FACULTES UNIVERSITAIRES NOTRE-DAME DE LA PAIX:
          OLIVIER QUINET, BENOIT CHAMPAGNE
     UNIVERSITY OF CALIFORNIA - SANTA BARBARA: BERNARD KIRTMAN
     INSTITUTE FOR MOLECULAR SCIENCE:
          KAZUYA ISHIMURA, MICHIO KATOUDA, AND SHIGERU NAGASE
     UNIVERSITY OF NOTRE DAME: ANNA POMOGAEVA, DAN CHIPMAN
     KYUSHU UNIVERSITY:
          HARUYUKI NAKANO,
          FENG LONG GU, JACEK KORCHOWIEC, MARCIN MAKOWSKI, AND YURIKO AOKI,
          HIROTOSHI MORI AND EISAKU MIYOSHI
     PENNSYLVANIA STATE UNIVERSITY:
          TZVETELIN IORDANOV, CHET SWALINA, JONATHAN SKONE,
          SHARON HAMMES-SCHIFFER
     WASEDA UNIVERSITY:
          MASATO KOBAYASHI, TOMOKO AKAMA, TSUGUKI TOUMA,
          TAKESHI YOSHIKAWA, YASUHIRO IKABATA, JUNJI SEINO,
          YUYA NAKAJIMA, HIROMI NAKAI
     NANJING UNIVERSITY: SHUHUA LI
     UNIVERSITY OF NEBRASKA:
          PEIFENG SU, DEJUN SI, NANDUN THELLAMUREGE, YALI WANG, HUI LI
     UNIVERSITY OF ZURICH: ROBERTO PEVERATI, KIM BALDRIDGE
     N. COPERNICUS UNIVERSITY AND JACKSON STATE UNIVERSITY:
          MARIA BARYSZ
     UNIVERSITY OF COPENHAGEN: Jimmy Kromann, CASPER STEINMANN
     TOKYO INSTITUTE OF TECHNOLOGY: HIROYA NAKATA
     NAGOYA UNIVERSITY: YOSHIO NISHIMOTO, STEPHAN IRLE
     MOSCOW STATE UNIVERSITY: VLADIMIR MIRONOV


 PARALLEL VERSION RUNNING ON        4 PROCESSORS IN        1 NODES.

 EXECUTION OF GAMESS BEGUN Thu Sep 30 11:19:52 2021

            ECHO OF THE FIRST FEW INPUT CARDS -
 INPUT CARD> $CONTRL                                                                        
 INPUT CARD>  SCFTYP=MCSCF  RUNTYP=ENERGY                                                   
 INPUT CARD>  NORMF=0                                                                       
 INPUT CARD>  COORD=UNIQUE  UNITS=ANGS  ECP=READ                                            
 INPUT CARD> $END                                                                           
 INPUT CARD> $SYSTEM  TIMLIM=3000  MWORDS=100  $END                                         
 INPUT CARD> $BASIS                                                                         
 INPUT CARD>  EXTFIL=.TRUE.  GBASIS=BFD-Dan                                                 
 INPUT CARD> $END                                                                           
 INPUT CARD> $GUESS                                                                         
 INPUT CARD>  GUESS=MOREAD  NORB=57  NORDER=0                                               
 INPUT CARD> $END                                                                           
 INPUT CARD> $DRT                                                                           
 INPUT CARD>  MXNINT=2500000                                                                
 INPUT CARD>  NMCC=0  NDOC=6  NVAL=3  NEXT=0                                                
 INPUT CARD>  GROUP=CS  ISTSYM=1                                                            
 INPUT CARD>  FORS=.TRUE.                                                                   
 INPUT CARD>  NPRT=2                                                                        
 INPUT CARD> $END                                                                           
 INPUT CARD> $MCSCF  CISTEP=GUGA  FULLNR=.TRUE.  MAXIT=200  $END                            
 INPUT CARD> $GUGDIA  PRTTOL=0.0  KPRINT=2  NSTATE=2  $END                                  
 INPUT CARD> $GUGDM                                                                         
 INPUT CARD>  WSTATE(1)=1.0,1.0                                                             
 INPUT CARD> $END                                                                           
 INPUT CARD> $GUGDM2                                                                        
 INPUT CARD>  WSTATE(1)=1.0,1.0                                                             
 INPUT CARD> $END                                                                           
 INPUT CARD> $DATA                                                                          
 INPUT CARD>- CAS22 HNO                                                                     
 INPUT CARD>CS                                                                              
 INPUT CARD>                                                                                
 INPUT CARD>O   8.000000     0.111655      1.140178    0.000000                             
 INPUT CARD>N   7.000000    -0.236949     -0.018994    0.000000                             
 INPUT CARD>H   1.000000     0.625294     -0.621185    0.000000                             
 INPUT CARD> $END                                                                           
 INPUT CARD> $ECP                                                                           
 INPUT CARD>O-ECP        GEN 2 1                                                            
 INPUT CARD>3                                                                               
 INPUT CARD>6.00000000 1 9.29793903                                                         
 INPUT CARD>55.78763416 3 8.86492204                                                        
 INPUT CARD>-38.81978498 2 8.62925665                                                       
 INPUT CARD>1                                                                               
 INPUT CARD>38.41914135 2 8.71924452                                                        
 INPUT CARD>N-ECP       GEN 2 1                                                             
 INPUT CARD>3                                                                               
 INPUT CARD>   5.00000000 1 9.23501007                                                      
 INPUT CARD>  46.17505034 3 7.66830008                                                      
 INPUT CARD> -30.18893534 2 7.34486070                                                      
 INPUT CARD>1                                                                               
 INPUT CARD>  31.69720409 2 6.99536540                                                      
  100000000 WORDS OF MEMORY AVAILABLE

     $BASIS REQUESTS READING THE "BFD-DAN " BASIS SET FROM AN EXTERNAL FILE


     RUN TITLE
     ---------
 - CAS22 HNO                                                                     

 THE POINT GROUP OF THE MOLECULE IS CS      
 THE ORDER OF THE PRINCIPAL AXIS IS     0

 THE EXTERNAL BASIS SET FILE BEING READ IS
     "/software/gamess_pool/BFD_Basis.data_Hw1"
 *** WARNING! ATOM   3 SHELL   17 TYPE S HAS NORMALIZATION   0.93387178

 ATOM      ATOMIC                      COORDINATES (BOHR)
           CHARGE         X                   Y                   Z
 O           8.0     0.2109973552        2.1546239972        0.0000000000
 N           7.0    -0.4477686831       -0.0358934554        0.0000000000
 H           1.0     1.1816343218       -1.1738694377        0.0000000000

          INTERNUCLEAR DISTANCES (ANGS.)
          ------------------------------

                1 O          2 N          3 H     

   1 O       0.0000000    1.2104563 *  1.8347274 *
   2 N       1.2104563 *  0.0000000    1.0517115 *
   3 H       1.8347274 *  1.0517115 *  0.0000000  

  * ... LESS THAN  3.000


     ATOMIC BASIS SET
     ----------------
 THE CONTRACTED PRIMITIVE FUNCTIONS HAVE BEEN UNNORMALIZED
 THE CONTRACTED BASIS FUNCTIONS ARE NOW NORMALIZED TO UNITY

  SHELL TYPE  PRIMITIVE        EXPONENT          CONTRACTION COEFFICIENT(S)

 O         

      1   S       1             0.1253460    0.055740958894
      1   S       2             0.2680220    0.304847775189
      1   S       3             0.5730980    0.453751665379
      1   S       4             1.2254290    0.295925781768
      1   S       5             2.6202770    0.019566985570
      1   S       6             5.6028180   -0.128626905144
      1   S       7            11.9802450    0.012023991133
      1   S       8            25.6168010    0.000406999700
      1   S       9            54.7752160   -0.000075999944

      2   S      10             0.2585510    1.000000000000

      3   S      11             0.0789600    1.000000000000

      4   P      12             0.0835980    0.044957980603
      4   P      13             0.1670170    0.150174935208
      4   P      14             0.3336730    0.255998889550
      4   P      15             0.6666270    0.281878878385
      4   P      16             1.3318160    0.242834895230
      4   P      17             2.6607610    0.161133930479
      4   P      18             5.3157850    0.082307964489
      4   P      19            10.6201080    0.039898982786
      4   P      20            21.2173180    0.004678997981

      5   P      21             0.2678650    1.000000000000

      6   P      22             0.0685600    1.000000000000

      7   D      23             1.2327530    1.000000000000

      8   D      24             0.3320000    1.000000000000

 N         

      9   S      25             0.0988690    0.067266010234
      9   S      26             0.2114430    0.334290050859
      9   S      27             0.4521970    0.454257069111
      9   S      28             0.9670800    0.267861040752
      9   S      29             2.0682210    0.000248000038
      9   S      30             4.4231500   -0.132606020175
      9   S      31             9.4594620    0.014437002196
      9   S      32            20.2302460    0.000359000055
      9   S      33            43.2649190   -0.000094000014

     10   S      34             0.1751230    1.000000000000

     11   S      35             0.0612400    1.000000000000

     12   P      36             0.0732340    0.035757988749
     12   P      37             0.1458670    0.153944951562
     12   P      38             0.2905350    0.277655912638
     12   P      39             0.5786830    0.297675906338
     12   P      40             1.1526120    0.234402926247
     12   P      41             2.2957560    0.140320955849
     12   P      42             4.5726520    0.067218978850
     12   P      43             9.1077390    0.031593990059
     12   P      44            18.1406570    0.003300998961

     13   P      45             0.2230420    1.000000000000

     14   P      46             0.0561100    1.000000000000

     15   D      47             0.8320580    1.000000000000

     16   D      48             0.2300000    1.000000000000

 H         

     17   S      49             6.4641755    0.063649375945
     17   S      50             1.1389146    0.339233210576
     17   S      51             0.2800325    0.702654522063

     18   S      52             0.0590841    1.000000000000

     19   S      53             0.0297400    1.000000000000

     20   P      54             0.5136806    1.000000000000

     21   P      55             0.1410000    1.000000000000

 TOTAL NUMBER OF BASIS SET SHELLS             =   21
 NUMBER OF CARTESIAN GAUSSIAN BASIS FUNCTIONS =   57
 NUMBER OF ELECTRONS                          =   16
 CHARGE OF MOLECULE                           =    0
 SPIN MULTIPLICITY                            =    1
 NUMBER OF OCCUPIED ORBITALS (ALPHA)          =    8
 NUMBER OF OCCUPIED ORBITALS (BETA )          =    8
 TOTAL NUMBER OF ATOMS                        =    3
 THE NUCLEAR REPULSION ENERGY IS       30.3111055149
 NOTE THIS RUN IS USING CORE POTENTIALS, AND THE NUMBER OF ELECTRONS,
 OCCUPIED ORBITALS, AND NUCLEAR REPULSION ENERGY WILL BE ADJUSTED BELOW
 AFTER REMOVAL OF THE CORE CHARGES.

     $CONTRL OPTIONS
     ---------------
 SCFTYP=MCSCF        RUNTYP=ENERGY       EXETYP=RUN     
 MPLEVL=       0     CITYP =NONE         CCTYP =NONE         VBTYP =NONE    
 DFTTYP=NONE         TDDFT =NONE    
 MULT  =       1     ICHARG=       0     NZVAR =       0     COORD =UNIQUE  
 PP    =READ         RELWFN=NONE         LOCAL =NONE         NUMGRD=       F
 ISPHER=      -1     NOSYM =       0     MAXIT =      30     UNITS =ANGS    
 PLTORB=       F     MOLPLT=       F     AIMPAC=       F     FRIEND=        
 NPRINT=       7     IREST =       0     GEOM  =INPUT   
 NORMF =       0     NORMP =       0     ITOL  =      20     ICUT  =       9
 INTTYP=BEST         GRDTYP=BEST         QMTTOL= 1.0E-06

     $SYSTEM OPTIONS
     ---------------
  REPLICATED MEMORY=   100000000 WORDS (ON EVERY NODE).
 DISTRIBUTED MEMDDI=           0 MILLION WORDS IN AGGREGATE,
 MEMDDI DISTRIBUTED OVER   4 PROCESSORS IS           0 WORDS/PROCESSOR.
 TOTAL MEMORY REQUESTED ON EACH PROCESSOR=   100000000 WORDS.
 TIMLIM=        3000.00 MINUTES, OR       2.1 DAYS.
 PARALL= T  BALTYP=  DLB     KDIAG=    0  COREFL= F
 MXSEQ2=     300 MXSEQ3=     150  mem10=         0

          --------------
          ECP POTENTIALS
          --------------

 PARAMETERS FOR "O-ECP   " ON ATOM    1 WITH ZCORE   2 AND LMAX  1 ARE
 FOR L= 1      COEFF    N           ZETA
    1        6.00000    1        9.29794
    2       55.78763    3        8.86492
    3      -38.81978    2        8.62926
 FOR L= 0      COEFF    N           ZETA
    1       38.41914    2        8.71924

 PARAMETERS FOR "N-ECP   " ON ATOM    2 WITH ZCORE   2 AND LMAX  1 ARE
 FOR L= 1      COEFF    N           ZETA
    1        5.00000    1        9.23501
    2       46.17505    3        7.66830
    3      -30.18894    2        7.34486
 FOR L= 0      COEFF    N           ZETA
    1       31.69720    2        6.99537

 PARAMETERS FOR "H-ECP   " ON ATOM    3 WITH ZCORE   0 AND LMAX  0 ARE
 FOR L= 0      COEFF    N           ZETA
    1        1.00000    1       25.00000
    2       25.00000    3       10.82182
    3       -8.22801    2        9.36862

 THE ECP RUN REMOVES    4 CORE ELECTRONS, AND THE SAME NUMBER OF PROTONS.
 NUMBER OF ELECTRONS KEPT IN THE CALCULATION IS =   12
 NUMBER OF OCCUPIED ORBITALS (ALPHA) KEPT IS    =    6
 NUMBER OF OCCUPIED ORBITALS (BETA ) KEPT IS    =    6
 THE ADJUSTED NUCLEAR REPULSION ENERGY=       17.3614791141
          ECP ANGULAR INTS.........     0.00 SECONDS

          ----------------
          PROPERTIES INPUT
          ----------------

     MOMENTS            FIELD           POTENTIAL          DENSITY
 IEMOM =       1   IEFLD =       0   IEPOT =       0   IEDEN =       0
 WHERE =COMASS     WHERE =NUCLEI     WHERE =NUCLEI     WHERE =NUCLEI  
 OUTPUT=BOTH       OUTPUT=BOTH       OUTPUT=BOTH       OUTPUT=BOTH    
 IEMINT=       0   IEFINT=       0                     IEDINT=       0
                                                       MORB  =       0

     -------------------------------
     INTEGRAL TRANSFORMATION OPTIONS
     -------------------------------
     NWORD  =            0
     CUTOFF = 1.0E-09     MPTRAN =       0
     DIRTRF =       F     AOINTS =DUP     
 INTEGRAL TRANSFORMATION OPTION -DIRTRF- FORCED TRUE,
 DUE TO THE CHOICE OF -FULLNR- IN A PARALLEL JOB.

          ----------------------
          MCSCF INPUT PARAMETERS
          ----------------------
 CONVERGER SELECTION: FOCAS = F  SOSCF = F  FULLNR = T  QUD = F  JACOBI = F
 SECULAR EQUATION METHOD CISTEP = GUGA    
 --- GENERAL INPUT OPTIONS:
 MAXIT =     200  MICIT =       1  ACURCY= 1.000E-05
 DAMP  =   0.000  CANONC=       T  ENGTOL= 1.000E-10
 EKT   =       F  NPUNCH=       2  NWORD =         0
 REGENERATE CI AFTER CONVERGENCE = NONE    
 DIABATIZATION AFTER CONVERGENCE =        F
 --- INPUT FOR FULLNR CONVERGER:
 METHOD=DM2       FORS  =       F  DROPC =       T
 LINSER=       F  FCORE =       F  NORB  =      57

          ----------------------
          INTEGRAL INPUT OPTIONS
          ----------------------
 NOPK  =       1 NORDER=       0 SCHWRZ=       F

     ------------------------------------------
     THE POINT GROUP IS CS , NAXIS= 0, ORDER= 2
     ------------------------------------------

     DIMENSIONS OF THE SYMMETRY SUBSPACES ARE
 A'  =   41     A'' =   16

 ..... DONE SETTING UP THE RUN .....
 CPU     0: STEP CPU TIME=     0.13 TOTAL CPU TIME=          0.1 (      0.0 MIN)
 TOTAL WALL CLOCK TIME=          0.1 SECONDS, CPU UTILIZATION IS    92.86%

          ********************
          1 ELECTRON INTEGRALS
          ********************
 TIME TO DO ORDINARY INTEGRALS=      0.00
 TIME TO DO      ECP INTEGRALS=      0.01
 TIME TO DO   DIPOLE INTEGRALS=      0.00
 ...... END OF ONE-ELECTRON INTEGRALS ......
 CPU     0: STEP CPU TIME=     0.01 TOTAL CPU TIME=          0.1 (      0.0 MIN)
 TOTAL WALL CLOCK TIME=          0.1 SECONDS, CPU UTILIZATION IS    93.33%

          -------------
          GUESS OPTIONS
          -------------
          GUESS =MOREAD            NORB  =      57          NORDER=       0
          MIX   =       F          PRTMO =       F          PUNMO =       F
          TOLZ  = 1.0E-08          TOLE  = 1.0E-05
          SYMDEN=       F          PURIFY=       F

 INITIAL GUESS ORBITALS GENERATED BY MOREAD   ROUTINE.

 SYMMETRIES FOR INITIAL GUESS ORBITALS FOLLOW.   BOTH SET(S).
     9 ORBITALS ARE OCCUPIED (    0 CORE ORBITALS).
     1=A'       2=A'       3=A'       4=A''      5=A'       6=A'       7=A'' 
     8=A'       9=A'      10=A'      11=A''     12=A'      13=A'      14=A'  
    15=A'      16=A''     17=A''     18=A'      19=A'      20=A'      21=A'  
    22=A'      23=A''     24=A'      25=A'      26=A''     27=A'      28=A'  
    29=A'      30=A''     31=A'      32=A''     33=A''     34=A'      35=A'  
    36=A'      37=A''     38=A'      39=A''     40=A'      41=A'      42=A'  
    43=A''     44=A'      45=A'      46=A''     47=A'      48=A'      49=A'  
    50=A''     51=A'      52=A''     53=A'      54=A'      55=A'      56=A'  
    57=A'  
 ...... END OF INITIAL ORBITAL SELECTION ......
 CPU     0: STEP CPU TIME=     0.00 TOTAL CPU TIME=          0.1 (      0.0 MIN)
 TOTAL WALL CLOCK TIME=          0.2 SECONDS, CPU UTILIZATION IS    87.50%

                    ----------------------
                    AO INTEGRAL TECHNOLOGY
                    ----------------------
     S,P,L SHELL ROTATED AXIS INTEGRALS, REPROGRAMMED BY
        KAZUYA ISHIMURA (IMS) AND JOSE SIERRA (SYNSTAR).
     S,P,D,L SHELL ROTATED AXIS INTEGRALS PROGRAMMED BY
        KAZUYA ISHIMURA (INSTITUTE FOR MOLECULAR SCIENCE).
     S,P,D,F,G SHELL TO TOTAL QUARTET ANGULAR MOMENTUM SUM 5,
        ERIC PROGRAM BY GRAHAM FLETCHER (ELORET AND NASA ADVANCED
        SUPERCOMPUTING DIVISION, AMES RESEARCH CENTER).
     S,P,D,F,G,L SHELL GENERAL RYS QUADRATURE PROGRAMMED BY
        MICHEL DUPUIS (PACIFIC NORTHWEST NATIONAL LABORATORY).
 DIRECT TRANSFORMATION SKIPS AO INTEGRAL STORAGE ON DISK.
  ...... END OF TWO-ELECTRON INTEGRALS .....
 STEP CPU TIME =     0.02 TOTAL CPU TIME =          0.2 (      0.0 MIN)
 TOTAL WALL CLOCK TIME=          0.2 SECONDS, CPU UTILIZATION IS    94.12%

          -----------------
          MCSCF CALCULATION
          -----------------

 ----- NUCLEAR ENERGY ----- =        17.3614791141

          -----------------------     ----------------------------
          GUGA DISTINCT ROW TABLE     WRITTEN BY B.R.BROOKS,P.SAXE
          -----------------------     ----------------------------

      GROUP=CS           NPRT=       2
       FORS=       T   INTACT=       F
       FOCI=       F   MXNINT= 2500000
       SOCI=       F   MXNEME=   10000
     IEXCIT=       0

      -CORE-    -INTERNAL-  -EXTERNAL-
     NFZC=   0   NDOC=   6   NEXT=   0
     NMCC=   0   NAOS=   0   NFZV=   0
                 NBOS=   0
                 NALP=   0
                 NVAL=   3

 THE MAXIMUM ELECTRON EXCITATION WILL BE   6

 SYMMETRIES FOR THE   0 CORE,   9 ACTIVE,   0 EXTERNAL MO-S ARE
   ACTIVE= A'    A'    A'    A''   A'    A'    A''   A'    A'  
           DOC   DOC   DOC   DOC   DOC   DOC   VAL   VAL   VAL 

 MOLECULAR CHARGE          =    0
 NUMBER OF ALPHA ELECTRONS =    6
 NUMBER OF  BETA ELECTRONS =    6

 THE ELECTRONIC STATE IS  1-A'  

 THE DISTINCT ROW TABLE HAS        67 ROWS.
  THE WAVEFUNCTION CONTAINS      1316 WALKS (CSF-S).


          DETERMINANT CONTRIBUTION TO CSF'S (BETA IS MINUS)
          -------------------------------------------------
 CASE VECTOR =       1
 111444444

 FOR MS=S-0
 CSF      1: C(  1)= 1.000000 :    4 -4  6 -6  5 -5  3 -3  2 -2  1 -1
 CASE VECTOR =       2
 112344444

 FOR MS=S-0
 CSF      2: C(  1)=-0.707107 :   -7  4  6 -6  5 -5  3 -3  2 -2  1 -1
             C(  2)= 0.707107 :    7 -4  6 -6  5 -5  3 -3  2 -2  1 -1
 CASE VECTOR =       3
 114144444

 FOR MS=S-0
 CSF      3: C(  1)= 1.000000 :    7 -7  6 -6  5 -5  3 -3  2 -2  1 -1
 CASE VECTOR =       4
 114414444

 FOR MS=S-0
 CSF      4: C(  1)= 1.000000 :    7 -7  4 -4  5 -5  3 -3  2 -2  1 -1
 CASE VECTOR =       5
 114423444

 FOR MS=S-0
 CSF      5: C(  1)=-0.707107 :    7 -7  4 -4 -6  5  3 -3  2 -2  1 -1
             C(  2)= 0.707107 :    7 -7  4 -4  6 -5  3 -3  2 -2  1 -1
 CASE VECTOR =       6
 114424344

 FOR MS=S-0
 CSF      6: C(  1)= 0.707107 :    7 -7  4 -4 -6  5 -5  3  2 -2  1 -1
             C(  2)=-0.707107 :    7 -7  4 -4  6  5 -5 -3  2 -2  1 -1
 CASE VECTOR =       7
 114424434

 FOR MS=S-0
 CSF      7: C(  1)=-0.707107 :    7 -7  4 -4 -6  5 -5  3 -3  2  1 -1
             C(  2)= 0.707107 :    7 -7  4 -4  6  5 -5  3 -3 -2  1 -1
 CASE VECTOR =       8
 114424443

 FOR MS=S-0
 CSF      8: C(  1)= 0.707107 :    7 -7  4 -4 -6  5 -5  3 -3  2 -2  1
             C(  2)=-0.707107 :    7 -7  4 -4  6  5 -5  3 -3  2 -2 -1
 CASE VECTOR =       9
 114441444

 FOR MS=S-0
 CSF      9: C(  1)= 1.000000 :    7 -7  4 -4  6 -6  3 -3  2 -2  1 -1
 CASE VECTOR =      10
 114442344

 FOR MS=S-0
 CSF     10: C(  1)=-0.707107 :    7 -7  4 -4  6 -6 -5  3  2 -2  1 -1
             C(  2)= 0.707107 :    7 -7  4 -4  6 -6  5 -3  2 -2  1 -1
 CASE VECTOR =      11
 114442434

 FOR MS=S-0
 CSF     11: C(  1)= 0.707107 :    7 -7  4 -4  6 -6 -5  3 -3  2  1 -1
             C(  2)=-0.707107 :    7 -7  4 -4  6 -6  5  3 -3 -2  1 -1
 CASE VECTOR =      12
 114442443

 FOR MS=S-0
 CSF     12: C(  1)=-0.707107 :    7 -7  4 -4  6 -6 -5  3 -3  2 -2  1
             C(  2)= 0.707107 :    7 -7  4 -4  6 -6  5  3 -3  2 -2 -1
 CASE VECTOR =      13
 114444144

 FOR MS=S-0
 CSF     13: C(  1)= 1.000000 :    7 -7  4 -4  6 -6  5 -5  2 -2  1 -1
 CASE VECTOR =      14
 114444234

 FOR MS=S-0
 CSF     14: C(  1)=-0.707107 :    7 -7  4 -4  6 -6  5 -5 -3  2  1 -1
             C(  2)= 0.707107 :    7 -7  4 -4  6 -6  5 -5  3 -2  1 -1
 CASE VECTOR =      15
 114444243

 FOR MS=S-0
 CSF     15: C(  1)= 0.707107 :    7 -7  4 -4  6 -6  5 -5 -3  2 -2  1
             C(  2)=-0.707107 :    7 -7  4 -4  6 -6  5 -5  3  2 -2 -1
 CASE VECTOR =      16
 114444414

 FOR MS=S-0
 CSF     16: C(  1)= 1.000000 :    7 -7  4 -4  6 -6  5 -5  3 -3  1 -1
 CASE VECTOR =      17
 114444423

 FOR MS=S-0
 CSF     17: C(  1)=-0.707107 :    7 -7  4 -4  6 -6  5 -5  3 -3 -2  1
             C(  2)= 0.707107 :    7 -7  4 -4  6 -6  5 -5  3 -3  2 -1
 CASE VECTOR =      18
 114444441

 FOR MS=S-0
 CSF     18: C(  1)= 1.000000 :    7 -7  4 -4  6 -6  5 -5  3 -3  2 -2
 CASE VECTOR =      19
 121434444

 FOR MS=S-0
 CSF     19: C(  1)= 0.707107 :   -9  4 -4  6  5 -5  3 -3  2 -2  1 -1
             C(  2)=-0.707107 :    9  4 -4 -6  5 -5  3 -3  2 -2  1 -1
 CASE VECTOR =      20
 121443444

 FOR MS=S-0
 CSF     20: C(  1)=-0.707107 :   -9  4 -4  6 -6  5  3 -3  2 -2  1 -1
             C(  2)= 0.707107 :    9  4 -4  6 -6 -5  3 -3  2 -2  1 -1
 CASE VECTOR =      21
 121444344

 FOR MS=S-0
 CSF     21: C(  1)= 0.707107 :   -9  4 -4  6 -6  5 -5  3  2 -2  1 -1
             C(  2)=-0.707107 :    9  4 -4  6 -6  5 -5 -3  2 -2  1 -1
 CASE VECTOR =      22
 121444434

 FOR MS=S-0
 CSF     22: C(  1)=-0.707107 :   -9  4 -4  6 -6  5 -5  3 -3  2  1 -1
             C(  2)= 0.707107 :    9  4 -4  6 -6  5 -5  3 -3 -2  1 -1
 CASE VECTOR =      23
 121444443

 FOR MS=S-0
 CSF     23: C(  1)= 0.707107 :   -9  4 -4  6 -6  5 -5  3 -3  2 -2  1
             C(  2)=-0.707107 :    9  4 -4  6 -6  5 -5  3 -3  2 -2 -1
 CASE VECTOR =      24
 122334444

 FOR MS=S-0
 CSF     24: C(  1)=-0.577350 :   -9 -7  4  6  5 -5  3 -3  2 -2  1 -1
             C(  2)= 0.288675 :   -9  7 -4  6  5 -5  3 -3  2 -2  1 -1
             C(  3)= 0.288675 :    9 -7 -4  6  5 -5  3 -3  2 -2  1 -1
             C(  4)= 0.288675 :   -9  7  4 -6  5 -5  3 -3  2 -2  1 -1
             C(  5)= 0.288675 :    9 -7  4 -6  5 -5  3 -3  2 -2  1 -1
             C(  6)=-0.577350 :    9  7 -4 -6  5 -5  3 -3  2 -2  1 -1
 CASE VECTOR =      25
 122343444

 FOR MS=S-0
 CSF     25: C(  1)= 0.577350 :   -9 -7  4  6 -6  5  3 -3  2 -2  1 -1
             C(  2)=-0.288675 :   -9  7 -4  6 -6  5  3 -3  2 -2  1 -1
             C(  3)=-0.288675 :    9 -7 -4  6 -6  5  3 -3  2 -2  1 -1
             C(  4)=-0.288675 :   -9  7  4  6 -6 -5  3 -3  2 -2  1 -1
             C(  5)=-0.288675 :    9 -7  4  6 -6 -5  3 -3  2 -2  1 -1
             C(  6)= 0.577350 :    9  7 -4  6 -6 -5  3 -3  2 -2  1 -1
 CASE VECTOR =      26
 122344344

 FOR MS=S-0
 CSF     26: C(  1)=-0.577350 :   -9 -7  4  6 -6  5 -5  3  2 -2  1 -1
             C(  2)= 0.288675 :   -9  7 -4  6 -6  5 -5  3  2 -2  1 -1
             C(  3)= 0.288675 :    9 -7 -4  6 -6  5 -5  3  2 -2  1 -1
             C(  4)= 0.288675 :   -9  7  4  6 -6  5 -5 -3  2 -2  1 -1
             C(  5)= 0.288675 :    9 -7  4  6 -6  5 -5 -3  2 -2  1 -1
             C(  6)=-0.577350 :    9  7 -4  6 -6  5 -5 -3  2 -2  1 -1
 CASE VECTOR =      27
 122344434

 FOR MS=S-0
 CSF     27: C(  1)= 0.577350 :   -9 -7  4  6 -6  5 -5  3 -3  2  1 -1
             C(  2)=-0.288675 :   -9  7 -4  6 -6  5 -5  3 -3  2  1 -1
             C(  3)=-0.288675 :    9 -7 -4  6 -6  5 -5  3 -3  2  1 -1
             C(  4)=-0.288675 :   -9  7  4  6 -6  5 -5  3 -3 -2  1 -1
             C(  5)=-0.288675 :    9 -7  4  6 -6  5 -5  3 -3 -2  1 -1
             C(  6)= 0.577350 :    9  7 -4  6 -6  5 -5  3 -3 -2  1 -1
 CASE VECTOR =      28
 122344443

 FOR MS=S-0
 CSF     28: C(  1)=-0.577350 :   -9 -7  4  6 -6  5 -5  3 -3  2 -2  1
             C(  2)= 0.288675 :   -9  7 -4  6 -6  5 -5  3 -3  2 -2  1
             C(  3)= 0.288675 :    9 -7 -4  6 -6  5 -5  3 -3  2 -2  1
             C(  4)= 0.288675 :   -9  7  4  6 -6  5 -5  3 -3  2 -2 -1
             C(  5)= 0.288675 :    9 -7  4  6 -6  5 -5  3 -3  2 -2 -1
             C(  6)=-0.577350 :    9  7 -4  6 -6  5 -5  3 -3  2 -2 -1
 CASE VECTOR =      29
 123234444

 FOR MS=S-0
 CSF     29: C(  1)= 0.500000 :   -9  7 -4  6  5 -5  3 -3  2 -2  1 -1
             C(  2)=-0.500000 :    9 -7 -4  6  5 -5  3 -3  2 -2  1 -1
             C(  3)=-0.500000 :   -9  7  4 -6  5 -5  3 -3  2 -2  1 -1
             C(  4)= 0.500000 :    9 -7  4 -6  5 -5  3 -3  2 -2  1 -1
 CASE VECTOR =      30
 123243444

 FOR MS=S-0
 CSF     30: C(  1)=-0.500000 :   -9  7 -4  6 -6  5  3 -3  2 -2  1 -1
             C(  2)= 0.500000 :    9 -7 -4  6 -6  5  3 -3  2 -2  1 -1
             C(  3)= 0.500000 :   -9  7  4  6 -6 -5  3 -3  2 -2  1 -1
             C(  4)=-0.500000 :    9 -7  4  6 -6 -5  3 -3  2 -2  1 -1
 CASE VECTOR =      31
 123244344

 FOR MS=S-0
 CSF     31: C(  1)= 0.500000 :   -9  7 -4  6 -6  5 -5  3  2 -2  1 -1
             C(  2)=-0.500000 :    9 -7 -4  6 -6  5 -5  3  2 -2  1 -1
             C(  3)=-0.500000 :   -9  7  4  6 -6  5 -5 -3  2 -2  1 -1
             C(  4)= 0.500000 :    9 -7  4  6 -6  5 -5 -3  2 -2  1 -1
 CASE VECTOR =      32
 123244434

 FOR MS=S-0
 CSF     32: C(  1)=-0.500000 :   -9  7 -4  6 -6  5 -5  3 -3  2  1 -1
             C(  2)= 0.500000 :    9 -7 -4  6 -6  5 -5  3 -3  2  1 -1
             C(  3)= 0.500000 :   -9  7  4  6 -6  5 -5  3 -3 -2  1 -1
             C(  4)=-0.500000 :    9 -7  4  6 -6  5 -5  3 -3 -2  1 -1
 CASE VECTOR =      33
 123244443

 FOR MS=S-0
 CSF     33: C(  1)= 0.500000 :   -9  7 -4  6 -6  5 -5  3 -3  2 -2  1
             C(  2)=-0.500000 :    9 -7 -4  6 -6  5 -5  3 -3  2 -2  1
             C(  3)=-0.500000 :   -9  7  4  6 -6  5 -5  3 -3  2 -2 -1
             C(  4)= 0.500000 :    9 -7  4  6 -6  5 -5  3 -3  2 -2 -1
 CASE VECTOR =      34
 124134444

 FOR MS=S-0
 CSF     34: C(  1)= 0.707107 :   -9  7 -7  6  5 -5  3 -3  2 -2  1 -1
             C(  2)=-0.707107 :    9  7 -7 -6  5 -5  3 -3  2 -2  1 -1
 CASE VECTOR =      35
 124143444

 FOR MS=S-0
 CSF     35: C(  1)=-0.707107 :   -9  7 -7  6 -6  5  3 -3  2 -2  1 -1
             C(  2)= 0.707107 :    9  7 -7  6 -6 -5  3 -3  2 -2  1 -1
 CASE VECTOR =      36
 124144344

 FOR MS=S-0
 CSF     36: C(  1)= 0.707107 :   -9  7 -7  6 -6  5 -5  3  2 -2  1 -1
             C(  2)=-0.707107 :    9  7 -7  6 -6  5 -5 -3  2 -2  1 -1
 CASE VECTOR =      37
 124144434

 FOR MS=S-0
 CSF     37: C(  1)=-0.707107 :   -9  7 -7  6 -6  5 -5  3 -3  2  1 -1
             C(  2)= 0.707107 :    9  7 -7  6 -6  5 -5  3 -3 -2  1 -1
 CASE VECTOR =      38
 124144443

 FOR MS=S-0
 CSF     38: C(  1)= 0.707107 :   -9  7 -7  6 -6  5 -5  3 -3  2 -2  1
             C(  2)=-0.707107 :    9  7 -7  6 -6  5 -5  3 -3  2 -2 -1
 CASE VECTOR =      39
 124413444

 FOR MS=S-0
 CSF     39: C(  1)=-0.707107 :   -9  7 -7  4 -4  5  3 -3  2 -2  1 -1
             C(  2)= 0.707107 :    9  7 -7  4 -4 -5  3 -3  2 -2  1 -1
 CASE VECTOR =      40
 124414344

 FOR MS=S-0
 CSF     40: C(  1)= 0.707107 :   -9  7 -7  4 -4  5 -5  3  2 -2  1 -1
             C(  2)=-0.707107 :    9  7 -7  4 -4  5 -5 -3  2 -2  1 -1
 CASE VECTOR =      41
 124414434

 FOR MS=S-0
 CSF     41: C(  1)=-0.707107 :   -9  7 -7  4 -4  5 -5  3 -3  2  1 -1
             C(  2)= 0.707107 :    9  7 -7  4 -4  5 -5  3 -3 -2  1 -1
 CASE VECTOR =      42
 124414443

 FOR MS=S-0
 CSF     42: C(  1)= 0.707107 :   -9  7 -7  4 -4  5 -5  3 -3  2 -2  1
             C(  2)=-0.707107 :    9  7 -7  4 -4  5 -5  3 -3  2 -2 -1
 CASE VECTOR =      43
 124423344

 FOR MS=S-0
 CSF     43: C(  1)=-0.577350 :   -9  7 -7  4 -4 -6  5  3  2 -2  1 -1
             C(  2)= 0.288675 :   -9  7 -7  4 -4  6 -5  3  2 -2  1 -1
             C(  3)= 0.288675 :    9  7 -7  4 -4 -6 -5  3  2 -2  1 -1
             C(  4)= 0.288675 :   -9  7 -7  4 -4  6  5 -3  2 -2  1 -1
             C(  5)= 0.288675 :    9  7 -7  4 -4 -6  5 -3  2 -2  1 -1
             C(  6)=-0.577350 :    9  7 -7  4 -4  6 -5 -3  2 -2  1 -1
 CASE VECTOR =      44
 124423434

 FOR MS=S-0
 CSF     44: C(  1)= 0.577350 :   -9  7 -7  4 -4 -6  5  3 -3  2  1 -1
             C(  2)=-0.288675 :   -9  7 -7  4 -4  6 -5  3 -3  2  1 -1
             C(  3)=-0.288675 :    9  7 -7  4 -4 -6 -5  3 -3  2  1 -1
             C(  4)=-0.288675 :   -9  7 -7  4 -4  6  5  3 -3 -2  1 -1
             C(  5)=-0.288675 :    9  7 -7  4 -4 -6  5  3 -3 -2  1 -1
             C(  6)= 0.577350 :    9  7 -7  4 -4  6 -5  3 -3 -2  1 -1
 CASE VECTOR =      45
 124423443

 FOR MS=S-0
 CSF     45: C(  1)=-0.577350 :   -9  7 -7  4 -4 -6  5  3 -3  2 -2  1
             C(  2)= 0.288675 :   -9  7 -7  4 -4  6 -5  3 -3  2 -2  1
             C(  3)= 0.288675 :    9  7 -7  4 -4 -6 -5  3 -3  2 -2  1
             C(  4)= 0.288675 :   -9  7 -7  4 -4  6  5  3 -3  2 -2 -1
             C(  5)= 0.288675 :    9  7 -7  4 -4 -6  5  3 -3  2 -2 -1
             C(  6)=-0.577350 :    9  7 -7  4 -4  6 -5  3 -3  2 -2 -1
 CASE VECTOR =      46
 124424334

 FOR MS=S-0
 CSF     46: C(  1)=-0.577350 :   -9  7 -7  4 -4 -6  5 -5  3  2  1 -1
             C(  2)= 0.288675 :   -9  7 -7  4 -4  6  5 -5 -3  2  1 -1
             C(  3)= 0.288675 :    9  7 -7  4 -4 -6  5 -5 -3  2  1 -1
             C(  4)= 0.288675 :   -9  7 -7  4 -4  6  5 -5  3 -2  1 -1
             C(  5)= 0.288675 :    9  7 -7  4 -4 -6  5 -5  3 -2  1 -1
             C(  6)=-0.577350 :    9  7 -7  4 -4  6  5 -5 -3 -2  1 -1
 CASE VECTOR =      47
 124424343

 FOR MS=S-0
 CSF     47: C(  1)= 0.577350 :   -9  7 -7  4 -4 -6  5 -5  3  2 -2  1
             C(  2)=-0.288675 :   -9  7 -7  4 -4  6  5 -5 -3  2 -2  1
             C(  3)=-0.288675 :    9  7 -7  4 -4 -6  5 -5 -3  2 -2  1
             C(  4)=-0.288675 :   -9  7 -7  4 -4  6  5 -5  3  2 -2 -1
             C(  5)=-0.288675 :    9  7 -7  4 -4 -6  5 -5  3  2 -2 -1
             C(  6)= 0.577350 :    9  7 -7  4 -4  6  5 -5 -3  2 -2 -1
 CASE VECTOR =      48
 124424433

 FOR MS=S-0
 CSF     48: C(  1)=-0.577350 :   -9  7 -7  4 -4 -6  5 -5  3 -3  2  1
             C(  2)= 0.288675 :   -9  7 -7  4 -4  6  5 -5  3 -3 -2  1
             C(  3)= 0.288675 :    9  7 -7  4 -4 -6  5 -5  3 -3 -2  1
             C(  4)= 0.288675 :   -9  7 -7  4 -4  6  5 -5  3 -3  2 -1
             C(  5)= 0.288675 :    9  7 -7  4 -4 -6  5 -5  3 -3  2 -1
             C(  6)=-0.577350 :    9  7 -7  4 -4  6  5 -5  3 -3 -2 -1
 CASE VECTOR =      49
 124431444

 FOR MS=S-0
 CSF     49: C(  1)=-0.707107 :   -9  7 -7  4 -4  6  3 -3  2 -2  1 -1
             C(  2)= 0.707107 :    9  7 -7  4 -4 -6  3 -3  2 -2  1 -1
 CASE VECTOR =      50
 124432344

 FOR MS=S-0
 CSF     50: C(  1)= 0.500000 :   -9  7 -7  4 -4  6 -5  3  2 -2  1 -1
             C(  2)=-0.500000 :    9  7 -7  4 -4 -6 -5  3  2 -2  1 -1
             C(  3)=-0.500000 :   -9  7 -7  4 -4  6  5 -3  2 -2  1 -1
             C(  4)= 0.500000 :    9  7 -7  4 -4 -6  5 -3  2 -2  1 -1
 CASE VECTOR =      51
 124432434

 FOR MS=S-0
 CSF     51: C(  1)=-0.500000 :   -9  7 -7  4 -4  6 -5  3 -3  2  1 -1
             C(  2)= 0.500000 :    9  7 -7  4 -4 -6 -5  3 -3  2  1 -1
             C(  3)= 0.500000 :   -9  7 -7  4 -4  6  5  3 -3 -2  1 -1
             C(  4)=-0.500000 :    9  7 -7  4 -4 -6  5  3 -3 -2  1 -1
 CASE VECTOR =      52
 124432443

 FOR MS=S-0
 CSF     52: C(  1)= 0.500000 :   -9  7 -7  4 -4  6 -5  3 -3  2 -2  1
             C(  2)=-0.500000 :    9  7 -7  4 -4 -6 -5  3 -3  2 -2  1
             C(  3)=-0.500000 :   -9  7 -7  4 -4  6  5  3 -3  2 -2 -1
             C(  4)= 0.500000 :    9  7 -7  4 -4 -6  5  3 -3  2 -2 -1
 CASE VECTOR =      53
 124434144

 FOR MS=S-0
 CSF     53: C(  1)=-0.707107 :   -9  7 -7  4 -4  6  5 -5  2 -2  1 -1
             C(  2)= 0.707107 :    9  7 -7  4 -4 -6  5 -5  2 -2  1 -1
 CASE VECTOR =      54
 124434234

 FOR MS=S-0
 CSF     54: C(  1)= 0.500000 :   -9  7 -7  4 -4  6  5 -5 -3  2  1 -1
             C(  2)=-0.500000 :    9  7 -7  4 -4 -6  5 -5 -3  2  1 -1
             C(  3)=-0.500000 :   -9  7 -7  4 -4  6  5 -5  3 -2  1 -1
             C(  4)= 0.500000 :    9  7 -7  4 -4 -6  5 -5  3 -2  1 -1
 CASE VECTOR =      55
 124434243

 FOR MS=S-0
 CSF     55: C(  1)=-0.500000 :   -9  7 -7  4 -4  6  5 -5 -3  2 -2  1
             C(  2)= 0.500000 :    9  7 -7  4 -4 -6  5 -5 -3  2 -2  1
             C(  3)= 0.500000 :   -9  7 -7  4 -4  6  5 -5  3  2 -2 -1
             C(  4)=-0.500000 :    9  7 -7  4 -4 -6  5 -5  3  2 -2 -1
 CASE VECTOR =      56
 124434414

 FOR MS=S-0
 CSF     56: C(  1)=-0.707107 :   -9  7 -7  4 -4  6  5 -5  3 -3  1 -1
             C(  2)= 0.707107 :    9  7 -7  4 -4 -6  5 -5  3 -3  1 -1
 CASE VECTOR =      57
 124434423

 FOR MS=S-0
 CSF     57: C(  1)= 0.500000 :   -9  7 -7  4 -4  6  5 -5  3 -3 -2  1
             C(  2)=-0.500000 :    9  7 -7  4 -4 -6  5 -5  3 -3 -2  1
             C(  3)=-0.500000 :   -9  7 -7  4 -4  6  5 -5  3 -3  2 -1
             C(  4)= 0.500000 :    9  7 -7  4 -4 -6  5 -5  3 -3  2 -1
 CASE VECTOR =      58
 124434441

 FOR MS=S-0
 CSF     58: C(  1)=-0.707107 :   -9  7 -7  4 -4  6  5 -5  3 -3  2 -2
             C(  2)= 0.707107 :    9  7 -7  4 -4 -6  5 -5  3 -3  2 -2
 CASE VECTOR =      59
 124441344

 FOR MS=S-0
 CSF     59: C(  1)= 0.707107 :   -9  7 -7  4 -4  6 -6  3  2 -2  1 -1
             C(  2)=-0.707107 :    9  7 -7  4 -4  6 -6 -3  2 -2  1 -1
 CASE VECTOR =      60
 124441434

 FOR MS=S-0
 CSF     60: C(  1)=-0.707107 :   -9  7 -7  4 -4  6 -6  3 -3  2  1 -1
             C(  2)= 0.707107 :    9  7 -7  4 -4  6 -6  3 -3 -2  1 -1
 CASE VECTOR =      61
 124441443

 FOR MS=S-0
 CSF     61: C(  1)= 0.707107 :   -9  7 -7  4 -4  6 -6  3 -3  2 -2  1
             C(  2)=-0.707107 :    9  7 -7  4 -4  6 -6  3 -3  2 -2 -1
 CASE VECTOR =      62
 124442334

 FOR MS=S-0
 CSF     62: C(  1)= 0.577350 :   -9  7 -7  4 -4  6 -6 -5  3  2  1 -1
             C(  2)=-0.288675 :   -9  7 -7  4 -4  6 -6  5 -3  2  1 -1
             C(  3)=-0.288675 :    9  7 -7  4 -4  6 -6 -5 -3  2  1 -1
             C(  4)=-0.288675 :   -9  7 -7  4 -4  6 -6  5  3 -2  1 -1
             C(  5)=-0.288675 :    9  7 -7  4 -4  6 -6 -5  3 -2  1 -1
             C(  6)= 0.577350 :    9  7 -7  4 -4  6 -6  5 -3 -2  1 -1
 CASE VECTOR =      63
 124442343

 FOR MS=S-0
 CSF     63: C(  1)=-0.577350 :   -9  7 -7  4 -4  6 -6 -5  3  2 -2  1
             C(  2)= 0.288675 :   -9  7 -7  4 -4  6 -6  5 -3  2 -2  1
             C(  3)= 0.288675 :    9  7 -7  4 -4  6 -6 -5 -3  2 -2  1
             C(  4)= 0.288675 :   -9  7 -7  4 -4  6 -6  5  3  2 -2 -1
             C(  5)= 0.288675 :    9  7 -7  4 -4  6 -6 -5  3  2 -2 -1
             C(  6)=-0.577350 :    9  7 -7  4 -4  6 -6  5 -3  2 -2 -1
 CASE VECTOR =      64
 124442433

 FOR MS=S-0
 CSF     64: C(  1)= 0.577350 :   -9  7 -7  4 -4  6 -6 -5  3 -3  2  1
             C(  2)=-0.288675 :   -9  7 -7  4 -4  6 -6  5  3 -3 -2  1
             C(  3)=-0.288675 :    9  7 -7  4 -4  6 -6 -5  3 -3 -2  1
             C(  4)=-0.288675 :   -9  7 -7  4 -4  6 -6  5  3 -3  2 -1
             C(  5)=-0.288675 :    9  7 -7  4 -4  6 -6 -5  3 -3  2 -1
             C(  6)= 0.577350 :    9  7 -7  4 -4  6 -6  5  3 -3 -2 -1
 CASE VECTOR =      65
 124443144

 FOR MS=S-0
 CSF     65: C(  1)= 0.707107 :   -9  7 -7  4 -4  6 -6  5  2 -2  1 -1
             C(  2)=-0.707107 :    9  7 -7  4 -4  6 -6 -5  2 -2  1 -1
 CASE VECTOR =      66
 124443234

 FOR MS=S-0
 CSF     66: C(  1)=-0.500000 :   -9  7 -7  4 -4  6 -6  5 -3  2  1 -1
             C(  2)= 0.500000 :    9  7 -7  4 -4  6 -6 -5 -3  2  1 -1
             C(  3)= 0.500000 :   -9  7 -7  4 -4  6 -6  5  3 -2  1 -1
             C(  4)=-0.500000 :    9  7 -7  4 -4  6 -6 -5  3 -2  1 -1
 CASE VECTOR =      67
 124443243

 FOR MS=S-0
 CSF     67: C(  1)= 0.500000 :   -9  7 -7  4 -4  6 -6  5 -3  2 -2  1
             C(  2)=-0.500000 :    9  7 -7  4 -4  6 -6 -5 -3  2 -2  1
             C(  3)=-0.500000 :   -9  7 -7  4 -4  6 -6  5  3  2 -2 -1
             C(  4)= 0.500000 :    9  7 -7  4 -4  6 -6 -5  3  2 -2 -1
 CASE VECTOR =      68
 124443414

 FOR MS=S-0
 CSF     68: C(  1)= 0.707107 :   -9  7 -7  4 -4  6 -6  5  3 -3  1 -1
             C(  2)=-0.707107 :    9  7 -7  4 -4  6 -6 -5  3 -3  1 -1
 CASE VECTOR =      69
 124443423

 FOR MS=S-0
 CSF     69: C(  1)=-0.500000 :   -9  7 -7  4 -4  6 -6  5  3 -3 -2  1
             C(  2)= 0.500000 :    9  7 -7  4 -4  6 -6 -5  3 -3 -2  1
             C(  3)= 0.500000 :   -9  7 -7  4 -4  6 -6  5  3 -3  2 -1
             C(  4)=-0.500000 :    9  7 -7  4 -4  6 -6 -5  3 -3  2 -1
 CASE VECTOR =      70
 124443441

 FOR MS=S-0
 CSF     70: C(  1)= 0.707107 :   -9  7 -7  4 -4  6 -6  5  3 -3  2 -2
             C(  2)=-0.707107 :    9  7 -7  4 -4  6 -6 -5  3 -3  2 -2
 CASE VECTOR =      71
 124444134

 FOR MS=S-0
 CSF     71: C(  1)=-0.707107 :   -9  7 -7  4 -4  6 -6  5 -5  2  1 -1
             C(  2)= 0.707107 :    9  7 -7  4 -4  6 -6  5 -5 -2  1 -1
 CASE VECTOR =      72
 124444143

 FOR MS=S-0
 CSF     72: C(  1)= 0.707107 :   -9  7 -7  4 -4  6 -6  5 -5  2 -2  1
             C(  2)=-0.707107 :    9  7 -7  4 -4  6 -6  5 -5  2 -2 -1
 CASE VECTOR =      73
 124444233

 FOR MS=S-0
 CSF     73: C(  1)=-0.577350 :   -9  7 -7  4 -4  6 -6  5 -5 -3  2  1
             C(  2)= 0.288675 :   -9  7 -7  4 -4  6 -6  5 -5  3 -2  1
             C(  3)= 0.288675 :    9  7 -7  4 -4  6 -6  5 -5 -3 -2  1
             C(  4)= 0.288675 :   -9  7 -7  4 -4  6 -6  5 -5  3  2 -1
             C(  5)= 0.288675 :    9  7 -7  4 -4  6 -6  5 -5 -3  2 -1
             C(  6)=-0.577350 :    9  7 -7  4 -4  6 -6  5 -5  3 -2 -1
 CASE VECTOR =      74
 124444314

 FOR MS=S-0
 CSF     74: C(  1)=-0.707107 :   -9  7 -7  4 -4  6 -6  5 -5  3  1 -1
             C(  2)= 0.707107 :    9  7 -7  4 -4  6 -6  5 -5 -3  1 -1
 CASE VECTOR =      75
 124444323

 FOR MS=S-0
 CSF     75: C(  1)= 0.500000 :   -9  7 -7  4 -4  6 -6  5 -5  3 -2  1
             C(  2)=-0.500000 :    9  7 -7  4 -4  6 -6  5 -5 -3 -2  1
             C(  3)=-0.500000 :   -9  7 -7  4 -4  6 -6  5 -5  3  2 -1
             C(  4)= 0.500000 :    9  7 -7  4 -4  6 -6  5 -5 -3  2 -1
 CASE VECTOR =      76
 124444341

 FOR MS=S-0
 CSF     76: C(  1)=-0.707107 :   -9  7 -7  4 -4  6 -6  5 -5  3  2 -2
             C(  2)= 0.707107 :    9  7 -7  4 -4  6 -6  5 -5 -3  2 -2
 CASE VECTOR =      77
 124444413

 FOR MS=S-0
 CSF     77: C(  1)= 0.707107 :   -9  7 -7  4 -4  6 -6  5 -5  3 -3  1
             C(  2)=-0.707107 :    9  7 -7  4 -4  6 -6  5 -5  3 -3 -1
 CASE VECTOR =      78
 124444431

 FOR MS=S-0
 CSF     78: C(  1)= 0.707107 :   -9  7 -7  4 -4  6 -6  5 -5  3 -3  2
             C(  2)=-0.707107 :    9  7 -7  4 -4  6 -6  5 -5  3 -3 -2
 CASE VECTOR =      79
 141144444

 FOR MS=S-0
 CSF     79: C(  1)= 1.000000 :    9 -9  6 -6  5 -5  3 -3  2 -2  1 -1
 CASE VECTOR =      80
 141414444

 FOR MS=S-0
 CSF     80: C(  1)= 1.000000 :    9 -9  4 -4  5 -5  3 -3  2 -2  1 -1
 CASE VECTOR =      81
 141423444

 FOR MS=S-0
 CSF     81: C(  1)=-0.707107 :    9 -9  4 -4 -6  5  3 -3  2 -2  1 -1
             C(  2)= 0.707107 :    9 -9  4 -4  6 -5  3 -3  2 -2  1 -1
 CASE VECTOR =      82
 141424344

 FOR MS=S-0
 CSF     82: C(  1)= 0.707107 :    9 -9  4 -4 -6  5 -5  3  2 -2  1 -1
             C(  2)=-0.707107 :    9 -9  4 -4  6  5 -5 -3  2 -2  1 -1
 CASE VECTOR =      83
 141424434

 FOR MS=S-0
 CSF     83: C(  1)=-0.707107 :    9 -9  4 -4 -6  5 -5  3 -3  2  1 -1
             C(  2)= 0.707107 :    9 -9  4 -4  6  5 -5  3 -3 -2  1 -1
 CASE VECTOR =      84
 141424443

 FOR MS=S-0
 CSF     84: C(  1)= 0.707107 :    9 -9  4 -4 -6  5 -5  3 -3  2 -2  1
             C(  2)=-0.707107 :    9 -9  4 -4  6  5 -5  3 -3  2 -2 -1
 CASE VECTOR =      85
 141441444

 FOR MS=S-0
 CSF     85: C(  1)= 1.000000 :    9 -9  4 -4  6 -6  3 -3  2 -2  1 -1
 CASE VECTOR =      86
 141442344

 FOR MS=S-0
 CSF     86: C(  1)=-0.707107 :    9 -9  4 -4  6 -6 -5  3  2 -2  1 -1
             C(  2)= 0.707107 :    9 -9  4 -4  6 -6  5 -3  2 -2  1 -1
 CASE VECTOR =      87
 141442434

 FOR MS=S-0
 CSF     87: C(  1)= 0.707107 :    9 -9  4 -4  6 -6 -5  3 -3  2  1 -1
             C(  2)=-0.707107 :    9 -9  4 -4  6 -6  5  3 -3 -2  1 -1
 CASE VECTOR =      88
 141442443

 FOR MS=S-0
 CSF     88: C(  1)=-0.707107 :    9 -9  4 -4  6 -6 -5  3 -3  2 -2  1
             C(  2)= 0.707107 :    9 -9  4 -4  6 -6  5  3 -3  2 -2 -1
 CASE VECTOR =      89
 141444144

 FOR MS=S-0
 CSF     89: C(  1)= 1.000000 :    9 -9  4 -4  6 -6  5 -5  2 -2  1 -1
 CASE VECTOR =      90
 141444234

 FOR MS=S-0
 CSF     90: C(  1)=-0.707107 :    9 -9  4 -4  6 -6  5 -5 -3  2  1 -1
             C(  2)= 0.707107 :    9 -9  4 -4  6 -6  5 -5  3 -2  1 -1
 CASE VECTOR =      91
 141444243

 FOR MS=S-0
 CSF     91: C(  1)= 0.707107 :    9 -9  4 -4  6 -6  5 -5 -3  2 -2  1
             C(  2)=-0.707107 :    9 -9  4 -4  6 -6  5 -5  3  2 -2 -1
 CASE VECTOR =      92
 141444414

 FOR MS=S-0
 CSF     92: C(  1)= 1.000000 :    9 -9  4 -4  6 -6  5 -5  3 -3  1 -1
 CASE VECTOR =      93
 141444423

 FOR MS=S-0
 CSF     93: C(  1)=-0.707107 :    9 -9  4 -4  6 -6  5 -5  3 -3 -2  1
             C(  2)= 0.707107 :    9 -9  4 -4  6 -6  5 -5  3 -3  2 -1
 CASE VECTOR =      94
 141444441

 FOR MS=S-0
 CSF     94: C(  1)= 1.000000 :    9 -9  4 -4  6 -6  5 -5  3 -3  2 -2
 CASE VECTOR =      95
 142233444

 FOR MS=S-0
 CSF     95: C(  1)=-0.577350 :    9 -9 -7 -4  6  5  3 -3  2 -2  1 -1
             C(  2)= 0.288675 :    9 -9 -7  4 -6  5  3 -3  2 -2  1 -1
             C(  3)= 0.288675 :    9 -9  7 -4 -6  5  3 -3  2 -2  1 -1
             C(  4)= 0.288675 :    9 -9 -7  4  6 -5  3 -3  2 -2  1 -1
             C(  5)= 0.288675 :    9 -9  7 -4  6 -5  3 -3  2 -2  1 -1
             C(  6)=-0.577350 :    9 -9  7  4 -6 -5  3 -3  2 -2  1 -1
 CASE VECTOR =      96
 142234344

 FOR MS=S-0
 CSF     96: C(  1)= 0.577350 :    9 -9 -7 -4  6  5 -5  3  2 -2  1 -1
             C(  2)=-0.288675 :    9 -9 -7  4 -6  5 -5  3  2 -2  1 -1
             C(  3)=-0.288675 :    9 -9  7 -4 -6  5 -5  3  2 -2  1 -1
             C(  4)=-0.288675 :    9 -9 -7  4  6  5 -5 -3  2 -2  1 -1
             C(  5)=-0.288675 :    9 -9  7 -4  6  5 -5 -3  2 -2  1 -1
             C(  6)= 0.577350 :    9 -9  7  4 -6  5 -5 -3  2 -2  1 -1
 CASE VECTOR =      97
 142234434

 FOR MS=S-0
 CSF     97: C(  1)=-0.577350 :    9 -9 -7 -4  6  5 -5  3 -3  2  1 -1
             C(  2)= 0.288675 :    9 -9 -7  4 -6  5 -5  3 -3  2  1 -1
             C(  3)= 0.288675 :    9 -9  7 -4 -6  5 -5  3 -3  2  1 -1
             C(  4)= 0.288675 :    9 -9 -7  4  6  5 -5  3 -3 -2  1 -1
             C(  5)= 0.288675 :    9 -9  7 -4  6  5 -5  3 -3 -2  1 -1
             C(  6)=-0.577350 :    9 -9  7  4 -6  5 -5  3 -3 -2  1 -1
 CASE VECTOR =      98
 142234443

 FOR MS=S-0
 CSF     98: C(  1)= 0.577350 :    9 -9 -7 -4  6  5 -5  3 -3  2 -2  1
             C(  2)=-0.288675 :    9 -9 -7  4 -6  5 -5  3 -3  2 -2  1
             C(  3)=-0.288675 :    9 -9  7 -4 -6  5 -5  3 -3  2 -2  1
             C(  4)=-0.288675 :    9 -9 -7  4  6  5 -5  3 -3  2 -2 -1
             C(  5)=-0.288675 :    9 -9  7 -4  6  5 -5  3 -3  2 -2 -1
             C(  6)= 0.577350 :    9 -9  7  4 -6  5 -5  3 -3  2 -2 -1
 CASE VECTOR =      99
 142243344

 FOR MS=S-0
 CSF     99: C(  1)=-0.577350 :    9 -9 -7 -4  6 -6  5  3  2 -2  1 -1
             C(  2)= 0.288675 :    9 -9 -7  4  6 -6 -5  3  2 -2  1 -1
             C(  3)= 0.288675 :    9 -9  7 -4  6 -6 -5  3  2 -2  1 -1
             C(  4)= 0.288675 :    9 -9 -7  4  6 -6  5 -3  2 -2  1 -1
             C(  5)= 0.288675 :    9 -9  7 -4  6 -6  5 -3  2 -2  1 -1
             C(  6)=-0.577350 :    9 -9  7  4  6 -6 -5 -3  2 -2  1 -1
 CASE VECTOR =     100
 142243434

 FOR MS=S-0
 CSF    100: C(  1)= 0.577350 :    9 -9 -7 -4  6 -6  5  3 -3  2  1 -1
             C(  2)=-0.288675 :    9 -9 -7  4  6 -6 -5  3 -3  2  1 -1
             C(  3)=-0.288675 :    9 -9  7 -4  6 -6 -5  3 -3  2  1 -1
             C(  4)=-0.288675 :    9 -9 -7  4  6 -6  5  3 -3 -2  1 -1
             C(  5)=-0.288675 :    9 -9  7 -4  6 -6  5  3 -3 -2  1 -1
             C(  6)= 0.577350 :    9 -9  7  4  6 -6 -5  3 -3 -2  1 -1
 CASE VECTOR =     101
 142243443

 FOR MS=S-0
 CSF    101: C(  1)=-0.577350 :    9 -9 -7 -4  6 -6  5  3 -3  2 -2  1
             C(  2)= 0.288675 :    9 -9 -7  4  6 -6 -5  3 -3  2 -2  1
             C(  3)= 0.288675 :    9 -9  7 -4  6 -6 -5  3 -3  2 -2  1
             C(  4)= 0.288675 :    9 -9 -7  4  6 -6  5  3 -3  2 -2 -1
             C(  5)= 0.288675 :    9 -9  7 -4  6 -6  5  3 -3  2 -2 -1
             C(  6)=-0.577350 :    9 -9  7  4  6 -6 -5  3 -3  2 -2 -1
 CASE VECTOR =     102
 142244334

 FOR MS=S-0
 CSF    102: C(  1)=-0.577350 :    9 -9 -7 -4  6 -6  5 -5  3  2  1 -1
             C(  2)= 0.288675 :    9 -9 -7  4  6 -6  5 -5 -3  2  1 -1
             C(  3)= 0.288675 :    9 -9  7 -4  6 -6  5 -5 -3  2  1 -1
             C(  4)= 0.288675 :    9 -9 -7  4  6 -6  5 -5  3 -2  1 -1
             C(  5)= 0.288675 :    9 -9  7 -4  6 -6  5 -5  3 -2  1 -1
             C(  6)=-0.577350 :    9 -9  7  4  6 -6  5 -5 -3 -2  1 -1
 CASE VECTOR =     103
 142244343

 FOR MS=S-0
 CSF    103: C(  1)= 0.577350 :    9 -9 -7 -4  6 -6  5 -5  3  2 -2  1
             C(  2)=-0.288675 :    9 -9 -7  4  6 -6  5 -5 -3  2 -2  1
             C(  3)=-0.288675 :    9 -9  7 -4  6 -6  5 -5 -3  2 -2  1
             C(  4)=-0.288675 :    9 -9 -7  4  6 -6  5 -5  3  2 -2 -1
             C(  5)=-0.288675 :    9 -9  7 -4  6 -6  5 -5  3  2 -2 -1
             C(  6)= 0.577350 :    9 -9  7  4  6 -6  5 -5 -3  2 -2 -1
 CASE VECTOR =     104
 142244433

 FOR MS=S-0
 CSF    104: C(  1)=-0.577350 :    9 -9 -7 -4  6 -6  5 -5  3 -3  2  1
             C(  2)= 0.288675 :    9 -9 -7  4  6 -6  5 -5  3 -3 -2  1
             C(  3)= 0.288675 :    9 -9  7 -4  6 -6  5 -5  3 -3 -2  1
             C(  4)= 0.288675 :    9 -9 -7  4  6 -6  5 -5  3 -3  2 -1
             C(  5)= 0.288675 :    9 -9  7 -4  6 -6  5 -5  3 -3  2 -1
             C(  6)=-0.577350 :    9 -9  7  4  6 -6  5 -5  3 -3 -2 -1
 CASE VECTOR =     105
 142314444

 FOR MS=S-0
 CSF    105: C(  1)=-0.707107 :    9 -9 -7  4  5 -5  3 -3  2 -2  1 -1
             C(  2)= 0.707107 :    9 -9  7 -4  5 -5  3 -3  2 -2  1 -1
 CASE VECTOR =     106
 142323444

 FOR MS=S-0
 CSF    106: C(  1)= 0.500000 :    9 -9 -7  4 -6  5  3 -3  2 -2  1 -1
             C(  2)=-0.500000 :    9 -9  7 -4 -6  5  3 -3  2 -2  1 -1
             C(  3)=-0.500000 :    9 -9 -7  4  6 -5  3 -3  2 -2  1 -1
             C(  4)= 0.500000 :    9 -9  7 -4  6 -5  3 -3  2 -2  1 -1
 CASE VECTOR =     107
 142324344

 FOR MS=S-0
 CSF    107: C(  1)=-0.500000 :    9 -9 -7  4 -6  5 -5  3  2 -2  1 -1
             C(  2)= 0.500000 :    9 -9  7 -4 -6  5 -5  3  2 -2  1 -1
             C(  3)= 0.500000 :    9 -9 -7  4  6  5 -5 -3  2 -2  1 -1
             C(  4)=-0.500000 :    9 -9  7 -4  6  5 -5 -3  2 -2  1 -1
 CASE VECTOR =     108
 142324434

 FOR MS=S-0
 CSF    108: C(  1)= 0.500000 :    9 -9 -7  4 -6  5 -5  3 -3  2  1 -1
             C(  2)=-0.500000 :    9 -9  7 -4 -6  5 -5  3 -3  2  1 -1
             C(  3)=-0.500000 :    9 -9 -7  4  6  5 -5  3 -3 -2  1 -1
             C(  4)= 0.500000 :    9 -9  7 -4  6  5 -5  3 -3 -2  1 -1
 CASE VECTOR =     109
 142324443

 FOR MS=S-0
 CSF    109: C(  1)=-0.500000 :    9 -9 -7  4 -6  5 -5  3 -3  2 -2  1
             C(  2)= 0.500000 :    9 -9  7 -4 -6  5 -5  3 -3  2 -2  1
             C(  3)= 0.500000 :    9 -9 -7  4  6  5 -5  3 -3  2 -2 -1
             C(  4)=-0.500000 :    9 -9  7 -4  6  5 -5  3 -3  2 -2 -1
 CASE VECTOR =     110
 142341444

 FOR MS=S-0
 CSF    110: C(  1)=-0.707107 :    9 -9 -7  4  6 -6  3 -3  2 -2  1 -1
             C(  2)= 0.707107 :    9 -9  7 -4  6 -6  3 -3  2 -2  1 -1
 CASE VECTOR =     111
 142342344

 FOR MS=S-0
 CSF    111: C(  1)= 0.500000 :    9 -9 -7  4  6 -6 -5  3  2 -2  1 -1
             C(  2)=-0.500000 :    9 -9  7 -4  6 -6 -5  3  2 -2  1 -1
             C(  3)=-0.500000 :    9 -9 -7  4  6 -6  5 -3  2 -2  1 -1
             C(  4)= 0.500000 :    9 -9  7 -4  6 -6  5 -3  2 -2  1 -1
 CASE VECTOR =     112
 142342434

 FOR MS=S-0
 CSF    112: C(  1)=-0.500000 :    9 -9 -7  4  6 -6 -5  3 -3  2  1 -1
             C(  2)= 0.500000 :    9 -9  7 -4  6 -6 -5  3 -3  2  1 -1
             C(  3)= 0.500000 :    9 -9 -7  4  6 -6  5  3 -3 -2  1 -1
             C(  4)=-0.500000 :    9 -9  7 -4  6 -6  5  3 -3 -2  1 -1
 CASE VECTOR =     113
 142342443

 FOR MS=S-0
 CSF    113: C(  1)= 0.500000 :    9 -9 -7  4  6 -6 -5  3 -3  2 -2  1
             C(  2)=-0.500000 :    9 -9  7 -4  6 -6 -5  3 -3  2 -2  1
             C(  3)=-0.500000 :    9 -9 -7  4  6 -6  5  3 -3  2 -2 -1
             C(  4)= 0.500000 :    9 -9  7 -4  6 -6  5  3 -3  2 -2 -1
 CASE VECTOR =     114
 142344144

 FOR MS=S-0
 CSF    114: C(  1)=-0.707107 :    9 -9 -7  4  6 -6  5 -5  2 -2  1 -1
             C(  2)= 0.707107 :    9 -9  7 -4  6 -6  5 -5  2 -2  1 -1
 CASE VECTOR =     115
 142344234

 FOR MS=S-0
 CSF    115: C(  1)= 0.500000 :    9 -9 -7  4  6 -6  5 -5 -3  2  1 -1
             C(  2)=-0.500000 :    9 -9  7 -4  6 -6  5 -5 -3  2  1 -1
             C(  3)=-0.500000 :    9 -9 -7  4  6 -6  5 -5  3 -2  1 -1
             C(  4)= 0.500000 :    9 -9  7 -4  6 -6  5 -5  3 -2  1 -1
 CASE VECTOR =     116
 142344243

 FOR MS=S-0
 CSF    116: C(  1)=-0.500000 :    9 -9 -7  4  6 -6  5 -5 -3  2 -2  1
             C(  2)= 0.500000 :    9 -9  7 -4  6 -6  5 -5 -3  2 -2  1
             C(  3)= 0.500000 :    9 -9 -7  4  6 -6  5 -5  3  2 -2 -1
             C(  4)=-0.500000 :    9 -9  7 -4  6 -6  5 -5  3  2 -2 -1
 CASE VECTOR =     117
 142344414

 FOR MS=S-0
 CSF    117: C(  1)=-0.707107 :    9 -9 -7  4  6 -6  5 -5  3 -3  1 -1
             C(  2)= 0.707107 :    9 -9  7 -4  6 -6  5 -5  3 -3  1 -1
 CASE VECTOR =     118
 142344423

 FOR MS=S-0
 CSF    118: C(  1)= 0.500000 :    9 -9 -7  4  6 -6  5 -5  3 -3 -2  1
             C(  2)=-0.500000 :    9 -9  7 -4  6 -6  5 -5  3 -3 -2  1
             C(  3)=-0.500000 :    9 -9 -7  4  6 -6  5 -5  3 -3  2 -1
             C(  4)= 0.500000 :    9 -9  7 -4  6 -6  5 -5  3 -3  2 -1
 CASE VECTOR =     119
 142344441

 FOR MS=S-0
 CSF    119: C(  1)=-0.707107 :    9 -9 -7  4  6 -6  5 -5  3 -3  2 -2
             C(  2)= 0.707107 :    9 -9  7 -4  6 -6  5 -5  3 -3  2 -2
 CASE VECTOR =     120
 144114444

 FOR MS=S-0
 CSF    120: C(  1)= 1.000000 :    9 -9  7 -7  5 -5  3 -3  2 -2  1 -1
 CASE VECTOR =     121
 144123444

 FOR MS=S-0
 CSF    121: C(  1)=-0.707107 :    9 -9  7 -7 -6  5  3 -3  2 -2  1 -1
             C(  2)= 0.707107 :    9 -9  7 -7  6 -5  3 -3  2 -2  1 -1
 CASE VECTOR =     122
 144124344

 FOR MS=S-0
 CSF    122: C(  1)= 0.707107 :    9 -9  7 -7 -6  5 -5  3  2 -2  1 -1
             C(  2)=-0.707107 :    9 -9  7 -7  6  5 -5 -3  2 -2  1 -1
 CASE VECTOR =     123
 144124434

 FOR MS=S-0
 CSF    123: C(  1)=-0.707107 :    9 -9  7 -7 -6  5 -5  3 -3  2  1 -1
             C(  2)= 0.707107 :    9 -9  7 -7  6  5 -5  3 -3 -2  1 -1
 CASE VECTOR =     124
 144124443

 FOR MS=S-0
 CSF    124: C(  1)= 0.707107 :    9 -9  7 -7 -6  5 -5  3 -3  2 -2  1
             C(  2)=-0.707107 :    9 -9  7 -7  6  5 -5  3 -3  2 -2 -1
 CASE VECTOR =     125
 144141444

 FOR MS=S-0
 CSF    125: C(  1)= 1.000000 :    9 -9  7 -7  6 -6  3 -3  2 -2  1 -1
 CASE VECTOR =     126
 144142344

 FOR MS=S-0
 CSF    126: C(  1)=-0.707107 :    9 -9  7 -7  6 -6 -5  3  2 -2  1 -1
             C(  2)= 0.707107 :    9 -9  7 -7  6 -6  5 -3  2 -2  1 -1
 CASE VECTOR =     127
 144142434

 FOR MS=S-0
 CSF    127: C(  1)= 0.707107 :    9 -9  7 -7  6 -6 -5  3 -3  2  1 -1
             C(  2)=-0.707107 :    9 -9  7 -7  6 -6  5  3 -3 -2  1 -1
 CASE VECTOR =     128
 144142443

 FOR MS=S-0
 CSF    128: C(  1)=-0.707107 :    9 -9  7 -7  6 -6 -5  3 -3  2 -2  1
             C(  2)= 0.707107 :    9 -9  7 -7  6 -6  5  3 -3  2 -2 -1
 CASE VECTOR =     129
 144144144

 FOR MS=S-0
 CSF    129: C(  1)= 1.000000 :    9 -9  7 -7  6 -6  5 -5  2 -2  1 -1
 CASE VECTOR =     130
 144144234

 FOR MS=S-0
 CSF    130: C(  1)=-0.707107 :    9 -9  7 -7  6 -6  5 -5 -3  2  1 -1
             C(  2)= 0.707107 :    9 -9  7 -7  6 -6  5 -5  3 -2  1 -1
 CASE VECTOR =     131
 144144243

 FOR MS=S-0
 CSF    131: C(  1)= 0.707107 :    9 -9  7 -7  6 -6  5 -5 -3  2 -2  1
             C(  2)=-0.707107 :    9 -9  7 -7  6 -6  5 -5  3  2 -2 -1
 CASE VECTOR =     132
 144144414

 FOR MS=S-0
 CSF    132: C(  1)= 1.000000 :    9 -9  7 -7  6 -6  5 -5  3 -3  1 -1
 CASE VECTOR =     133
 144144423

 FOR MS=S-0
 CSF    133: C(  1)=-0.707107 :    9 -9  7 -7  6 -6  5 -5  3 -3 -2  1
             C(  2)= 0.707107 :    9 -9  7 -7  6 -6  5 -5  3 -3  2 -1
 CASE VECTOR =     134
 144144441

 FOR MS=S-0
 CSF    134: C(  1)= 1.000000 :    9 -9  7 -7  6 -6  5 -5  3 -3  2 -2
 CASE VECTOR =     135
 144411444

 FOR MS=S-0
 CSF    135: C(  1)= 1.000000 :    9 -9  7 -7  4 -4  3 -3  2 -2  1 -1
 CASE VECTOR =     136
 144412344

 FOR MS=S-0
 CSF    136: C(  1)=-0.707107 :    9 -9  7 -7  4 -4 -5  3  2 -2  1 -1
             C(  2)= 0.707107 :    9 -9  7 -7  4 -4  5 -3  2 -2  1 -1
 CASE VECTOR =     137
 144412434

 FOR MS=S-0
 CSF    137: C(  1)= 0.707107 :    9 -9  7 -7  4 -4 -5  3 -3  2  1 -1
             C(  2)=-0.707107 :    9 -9  7 -7  4 -4  5  3 -3 -2  1 -1
 CASE VECTOR =     138
 144412443

 FOR MS=S-0
 CSF    138: C(  1)=-0.707107 :    9 -9  7 -7  4 -4 -5  3 -3  2 -2  1
             C(  2)= 0.707107 :    9 -9  7 -7  4 -4  5  3 -3  2 -2 -1
 CASE VECTOR =     139
 144414144

 FOR MS=S-0
 CSF    139: C(  1)= 1.000000 :    9 -9  7 -7  4 -4  5 -5  2 -2  1 -1
 CASE VECTOR =     140
 144414234

 FOR MS=S-0
 CSF    140: C(  1)=-0.707107 :    9 -9  7 -7  4 -4  5 -5 -3  2  1 -1
             C(  2)= 0.707107 :    9 -9  7 -7  4 -4  5 -5  3 -2  1 -1
 CASE VECTOR =     141
 144414243

 FOR MS=S-0
 CSF    141: C(  1)= 0.707107 :    9 -9  7 -7  4 -4  5 -5 -3  2 -2  1
             C(  2)=-0.707107 :    9 -9  7 -7  4 -4  5 -5  3  2 -2 -1
 CASE VECTOR =     142
 144414414

 FOR MS=S-0
 CSF    142: C(  1)= 1.000000 :    9 -9  7 -7  4 -4  5 -5  3 -3  1 -1
 CASE VECTOR =     143
 144414423

 FOR MS=S-0
 CSF    143: C(  1)=-0.707107 :    9 -9  7 -7  4 -4  5 -5  3 -3 -2  1
             C(  2)= 0.707107 :    9 -9  7 -7  4 -4  5 -5  3 -3  2 -1
 CASE VECTOR =     144
 144414441

 FOR MS=S-0
 CSF    144: C(  1)= 1.000000 :    9 -9  7 -7  4 -4  5 -5  3 -3  2 -2
 CASE VECTOR =     145
 144421344

 FOR MS=S-0
 CSF    145: C(  1)=-0.707107 :    9 -9  7 -7  4 -4 -6  3  2 -2  1 -1
             C(  2)= 0.707107 :    9 -9  7 -7  4 -4  6 -3  2 -2  1 -1
 CASE VECTOR =     146
 144421434

 FOR MS=S-0
 CSF    146: C(  1)= 0.707107 :    9 -9  7 -7  4 -4 -6  3 -3  2  1 -1
             C(  2)=-0.707107 :    9 -9  7 -7  4 -4  6  3 -3 -2  1 -1
 CASE VECTOR =     147
 144421443

 FOR MS=S-0
 CSF    147: C(  1)=-0.707107 :    9 -9  7 -7  4 -4 -6  3 -3  2 -2  1
             C(  2)= 0.707107 :    9 -9  7 -7  4 -4  6  3 -3  2 -2 -1
 CASE VECTOR =     148
 144422334

 FOR MS=S-0
 CSF    148: C(  1)=-0.577350 :    9 -9  7 -7  4 -4 -6 -5  3  2  1 -1
             C(  2)= 0.288675 :    9 -9  7 -7  4 -4 -6  5 -3  2  1 -1
             C(  3)= 0.288675 :    9 -9  7 -7  4 -4  6 -5 -3  2  1 -1
             C(  4)= 0.288675 :    9 -9  7 -7  4 -4 -6  5  3 -2  1 -1
             C(  5)= 0.288675 :    9 -9  7 -7  4 -4  6 -5  3 -2  1 -1
             C(  6)=-0.577350 :    9 -9  7 -7  4 -4  6  5 -3 -2  1 -1
 CASE VECTOR =     149
 144422343

 FOR MS=S-0
 CSF    149: C(  1)= 0.577350 :    9 -9  7 -7  4 -4 -6 -5  3  2 -2  1
             C(  2)=-0.288675 :    9 -9  7 -7  4 -4 -6  5 -3  2 -2  1
             C(  3)=-0.288675 :    9 -9  7 -7  4 -4  6 -5 -3  2 -2  1
             C(  4)=-0.288675 :    9 -9  7 -7  4 -4 -6  5  3  2 -2 -1
             C(  5)=-0.288675 :    9 -9  7 -7  4 -4  6 -5  3  2 -2 -1
             C(  6)= 0.577350 :    9 -9  7 -7  4 -4  6  5 -3  2 -2 -1
 CASE VECTOR =     150
 144422433

 FOR MS=S-0
 CSF    150: C(  1)=-0.577350 :    9 -9  7 -7  4 -4 -6 -5  3 -3  2  1
             C(  2)= 0.288675 :    9 -9  7 -7  4 -4 -6  5  3 -3 -2  1
             C(  3)= 0.288675 :    9 -9  7 -7  4 -4  6 -5  3 -3 -2  1
             C(  4)= 0.288675 :    9 -9  7 -7  4 -4 -6  5  3 -3  2 -1
             C(  5)= 0.288675 :    9 -9  7 -7  4 -4  6 -5  3 -3  2 -1
             C(  6)=-0.577350 :    9 -9  7 -7  4 -4  6  5  3 -3 -2 -1
 CASE VECTOR =     151
 144423144

 FOR MS=S-0
 CSF    151: C(  1)=-0.707107 :    9 -9  7 -7  4 -4 -6  5  2 -2  1 -1
             C(  2)= 0.707107 :    9 -9  7 -7  4 -4  6 -5  2 -2  1 -1
 CASE VECTOR =     152
 144423234

 FOR MS=S-0
 CSF    152: C(  1)= 0.500000 :    9 -9  7 -7  4 -4 -6  5 -3  2  1 -1
             C(  2)=-0.500000 :    9 -9  7 -7  4 -4  6 -5 -3  2  1 -1
             C(  3)=-0.500000 :    9 -9  7 -7  4 -4 -6  5  3 -2  1 -1
             C(  4)= 0.500000 :    9 -9  7 -7  4 -4  6 -5  3 -2  1 -1
 CASE VECTOR =     153
 144423243

 FOR MS=S-0
 CSF    153: C(  1)=-0.500000 :    9 -9  7 -7  4 -4 -6  5 -3  2 -2  1
             C(  2)= 0.500000 :    9 -9  7 -7  4 -4  6 -5 -3  2 -2  1
             C(  3)= 0.500000 :    9 -9  7 -7  4 -4 -6  5  3  2 -2 -1
             C(  4)=-0.500000 :    9 -9  7 -7  4 -4  6 -5  3  2 -2 -1
 CASE VECTOR =     154
 144423414

 FOR MS=S-0
 CSF    154: C(  1)=-0.707107 :    9 -9  7 -7  4 -4 -6  5  3 -3  1 -1
             C(  2)= 0.707107 :    9 -9  7 -7  4 -4  6 -5  3 -3  1 -1
 CASE VECTOR =     155
 144423423

 FOR MS=S-0
 CSF    155: C(  1)= 0.500000 :    9 -9  7 -7  4 -4 -6  5  3 -3 -2  1
             C(  2)=-0.500000 :    9 -9  7 -7  4 -4  6 -5  3 -3 -2  1
             C(  3)=-0.500000 :    9 -9  7 -7  4 -4 -6  5  3 -3  2 -1
             C(  4)= 0.500000 :    9 -9  7 -7  4 -4  6 -5  3 -3  2 -1
 CASE VECTOR =     156
 144423441

 FOR MS=S-0
 CSF    156: C(  1)=-0.707107 :    9 -9  7 -7  4 -4 -6  5  3 -3  2 -2
             C(  2)= 0.707107 :    9 -9  7 -7  4 -4  6 -5  3 -3  2 -2
 CASE VECTOR =     157
 144424134

 FOR MS=S-0
 CSF    157: C(  1)= 0.707107 :    9 -9  7 -7  4 -4 -6  5 -5  2  1 -1
             C(  2)=-0.707107 :    9 -9  7 -7  4 -4  6  5 -5 -2  1 -1
 CASE VECTOR =     158
 144424143

 FOR MS=S-0
 CSF    158: C(  1)=-0.707107 :    9 -9  7 -7  4 -4 -6  5 -5  2 -2  1
             C(  2)= 0.707107 :    9 -9  7 -7  4 -4  6  5 -5  2 -2 -1
 CASE VECTOR =     159
 144424233

 FOR MS=S-0
 CSF    159: C(  1)= 0.577350 :    9 -9  7 -7  4 -4 -6  5 -5 -3  2  1
             C(  2)=-0.288675 :    9 -9  7 -7  4 -4 -6  5 -5  3 -2  1
             C(  3)=-0.288675 :    9 -9  7 -7  4 -4  6  5 -5 -3 -2  1
             C(  4)=-0.288675 :    9 -9  7 -7  4 -4 -6  5 -5  3  2 -1
             C(  5)=-0.288675 :    9 -9  7 -7  4 -4  6  5 -5 -3  2 -1
             C(  6)= 0.577350 :    9 -9  7 -7  4 -4  6  5 -5  3 -2 -1
 CASE VECTOR =     160
 144424314

 FOR MS=S-0
 CSF    160: C(  1)= 0.707107 :    9 -9  7 -7  4 -4 -6  5 -5  3  1 -1
             C(  2)=-0.707107 :    9 -9  7 -7  4 -4  6  5 -5 -3  1 -1
 CASE VECTOR =     161
 144424323

 FOR MS=S-0
 CSF    161: C(  1)=-0.500000 :    9 -9  7 -7  4 -4 -6  5 -5  3 -2  1
             C(  2)= 0.500000 :    9 -9  7 -7  4 -4  6  5 -5 -3 -2  1
             C(  3)= 0.500000 :    9 -9  7 -7  4 -4 -6  5 -5  3  2 -1
             C(  4)=-0.500000 :    9 -9  7 -7  4 -4  6  5 -5 -3  2 -1
 CASE VECTOR =     162
 144424341

 FOR MS=S-0
 CSF    162: C(  1)= 0.707107 :    9 -9  7 -7  4 -4 -6  5 -5  3  2 -2
             C(  2)=-0.707107 :    9 -9  7 -7  4 -4  6  5 -5 -3  2 -2
 CASE VECTOR =     163
 144424413

 FOR MS=S-0
 CSF    163: C(  1)=-0.707107 :    9 -9  7 -7  4 -4 -6  5 -5  3 -3  1
             C(  2)= 0.707107 :    9 -9  7 -7  4 -4  6  5 -5  3 -3 -1
 CASE VECTOR =     164
 144424431

 FOR MS=S-0
 CSF    164: C(  1)=-0.707107 :    9 -9  7 -7  4 -4 -6  5 -5  3 -3  2
             C(  2)= 0.707107 :    9 -9  7 -7  4 -4  6  5 -5  3 -3 -2
 CASE VECTOR =     165
 144441144

 FOR MS=S-0
 CSF    165: C(  1)= 1.000000 :    9 -9  7 -7  4 -4  6 -6  2 -2  1 -1
 CASE VECTOR =     166
 144441234

 FOR MS=S-0
 CSF    166: C(  1)=-0.707107 :    9 -9  7 -7  4 -4  6 -6 -3  2  1 -1
             C(  2)= 0.707107 :    9 -9  7 -7  4 -4  6 -6  3 -2  1 -1
 CASE VECTOR =     167
 144441243

 FOR MS=S-0
 CSF    167: C(  1)= 0.707107 :    9 -9  7 -7  4 -4  6 -6 -3  2 -2  1
             C(  2)=-0.707107 :    9 -9  7 -7  4 -4  6 -6  3  2 -2 -1
 CASE VECTOR =     168
 144441414

 FOR MS=S-0
 CSF    168: C(  1)= 1.000000 :    9 -9  7 -7  4 -4  6 -6  3 -3  1 -1
 CASE VECTOR =     169
 144441423

 FOR MS=S-0
 CSF    169: C(  1)=-0.707107 :    9 -9  7 -7  4 -4  6 -6  3 -3 -2  1
             C(  2)= 0.707107 :    9 -9  7 -7  4 -4  6 -6  3 -3  2 -1
 CASE VECTOR =     170
 144441441

 FOR MS=S-0
 CSF    170: C(  1)= 1.000000 :    9 -9  7 -7  4 -4  6 -6  3 -3  2 -2
 CASE VECTOR =     171
 144442134

 FOR MS=S-0
 CSF    171: C(  1)=-0.707107 :    9 -9  7 -7  4 -4  6 -6 -5  2  1 -1
             C(  2)= 0.707107 :    9 -9  7 -7  4 -4  6 -6  5 -2  1 -1
 CASE VECTOR =     172
 144442143

 FOR MS=S-0
 CSF    172: C(  1)= 0.707107 :    9 -9  7 -7  4 -4  6 -6 -5  2 -2  1
             C(  2)=-0.707107 :    9 -9  7 -7  4 -4  6 -6  5  2 -2 -1
 CASE VECTOR =     173
 144442233

 FOR MS=S-0
 CSF    173: C(  1)=-0.577350 :    9 -9  7 -7  4 -4  6 -6 -5 -3  2  1
             C(  2)= 0.288675 :    9 -9  7 -7  4 -4  6 -6 -5  3 -2  1
             C(  3)= 0.288675 :    9 -9  7 -7  4 -4  6 -6  5 -3 -2  1
             C(  4)= 0.288675 :    9 -9  7 -7  4 -4  6 -6 -5  3  2 -1
             C(  5)= 0.288675 :    9 -9  7 -7  4 -4  6 -6  5 -3  2 -1
             C(  6)=-0.577350 :    9 -9  7 -7  4 -4  6 -6  5  3 -2 -1
 CASE VECTOR =     174
 144442314

 FOR MS=S-0
 CSF    174: C(  1)=-0.707107 :    9 -9  7 -7  4 -4  6 -6 -5  3  1 -1
             C(  2)= 0.707107 :    9 -9  7 -7  4 -4  6 -6  5 -3  1 -1
 CASE VECTOR =     175
 144442323

 FOR MS=S-0
 CSF    175: C(  1)= 0.500000 :    9 -9  7 -7  4 -4  6 -6 -5  3 -2  1
             C(  2)=-0.500000 :    9 -9  7 -7  4 -4  6 -6  5 -3 -2  1
             C(  3)=-0.500000 :    9 -9  7 -7  4 -4  6 -6 -5  3  2 -1
             C(  4)= 0.500000 :    9 -9  7 -7  4 -4  6 -6  5 -3  2 -1
 CASE VECTOR =     176
 144442341

 FOR MS=S-0
 CSF    176: C(  1)=-0.707107 :    9 -9  7 -7  4 -4  6 -6 -5  3  2 -2
             C(  2)= 0.707107 :    9 -9  7 -7  4 -4  6 -6  5 -3  2 -2
 CASE VECTOR =     177
 144442413

 FOR MS=S-0
 CSF    177: C(  1)= 0.707107 :    9 -9  7 -7  4 -4  6 -6 -5  3 -3  1
             C(  2)=-0.707107 :    9 -9  7 -7  4 -4  6 -6  5  3 -3 -1
 CASE VECTOR =     178
 144442431

 FOR MS=S-0
 CSF    178: C(  1)= 0.707107 :    9 -9  7 -7  4 -4  6 -6 -5  3 -3  2
             C(  2)=-0.707107 :    9 -9  7 -7  4 -4  6 -6  5  3 -3 -2
 CASE VECTOR =     179
 144444114

 FOR MS=S-0
 CSF    179: C(  1)= 1.000000 :    9 -9  7 -7  4 -4  6 -6  5 -5  1 -1
 CASE VECTOR =     180
 144444123

 FOR MS=S-0
 CSF    180: C(  1)=-0.707107 :    9 -9  7 -7  4 -4  6 -6  5 -5 -2  1
             C(  2)= 0.707107 :    9 -9  7 -7  4 -4  6 -6  5 -5  2 -1
 CASE VECTOR =     181
 144444141

 FOR MS=S-0
 CSF    181: C(  1)= 1.000000 :    9 -9  7 -7  4 -4  6 -6  5 -5  2 -2
 CASE VECTOR =     182
 144444213

 FOR MS=S-0
 CSF    182: C(  1)=-0.707107 :    9 -9  7 -7  4 -4  6 -6  5 -5 -3  1
             C(  2)= 0.707107 :    9 -9  7 -7  4 -4  6 -6  5 -5  3 -1
 CASE VECTOR =     183
 144444231

 FOR MS=S-0
 CSF    183: C(  1)=-0.707107 :    9 -9  7 -7  4 -4  6 -6  5 -5 -3  2
             C(  2)= 0.707107 :    9 -9  7 -7  4 -4  6 -6  5 -5  3 -2
 CASE VECTOR =     184
 144444411

 FOR MS=S-0
 CSF    184: C(  1)= 1.000000 :    9 -9  7 -7  4 -4  6 -6  5 -5  3 -3
 CASE VECTOR =     185
 211434444

 FOR MS=S-0
 CSF    185: C(  1)= 0.707107 :   -8  4 -4  6  5 -5  3 -3  2 -2  1 -1
             C(  2)=-0.707107 :    8  4 -4 -6  5 -5  3 -3  2 -2  1 -1
 CASE VECTOR =     186
 211443444

 FOR MS=S-0
 CSF    186: C(  1)=-0.707107 :   -8  4 -4  6 -6  5  3 -3  2 -2  1 -1
             C(  2)= 0.707107 :    8  4 -4  6 -6 -5  3 -3  2 -2  1 -1
 CASE VECTOR =     187
 211444344

 FOR MS=S-0
 CSF    187: C(  1)= 0.707107 :   -8  4 -4  6 -6  5 -5  3  2 -2  1 -1
             C(  2)=-0.707107 :    8  4 -4  6 -6  5 -5 -3  2 -2  1 -1
 CASE VECTOR =     188
 211444434

 FOR MS=S-0
 CSF    188: C(  1)=-0.707107 :   -8  4 -4  6 -6  5 -5  3 -3  2  1 -1
             C(  2)= 0.707107 :    8  4 -4  6 -6  5 -5  3 -3 -2  1 -1
 CASE VECTOR =     189
 211444443

 FOR MS=S-0
 CSF    189: C(  1)= 0.707107 :   -8  4 -4  6 -6  5 -5  3 -3  2 -2  1
             C(  2)=-0.707107 :    8  4 -4  6 -6  5 -5  3 -3  2 -2 -1
 CASE VECTOR =     190
 212334444

 FOR MS=S-0
 CSF    190: C(  1)=-0.577350 :   -8 -7  4  6  5 -5  3 -3  2 -2  1 -1
             C(  2)= 0.288675 :   -8  7 -4  6  5 -5  3 -3  2 -2  1 -1
             C(  3)= 0.288675 :    8 -7 -4  6  5 -5  3 -3  2 -2  1 -1
             C(  4)= 0.288675 :   -8  7  4 -6  5 -5  3 -3  2 -2  1 -1
             C(  5)= 0.288675 :    8 -7  4 -6  5 -5  3 -3  2 -2  1 -1
             C(  6)=-0.577350 :    8  7 -4 -6  5 -5  3 -3  2 -2  1 -1
 CASE VECTOR =     191
 212343444

 FOR MS=S-0
 CSF    191: C(  1)= 0.577350 :   -8 -7  4  6 -6  5  3 -3  2 -2  1 -1
             C(  2)=-0.288675 :   -8  7 -4  6 -6  5  3 -3  2 -2  1 -1
             C(  3)=-0.288675 :    8 -7 -4  6 -6  5  3 -3  2 -2  1 -1
             C(  4)=-0.288675 :   -8  7  4  6 -6 -5  3 -3  2 -2  1 -1
             C(  5)=-0.288675 :    8 -7  4  6 -6 -5  3 -3  2 -2  1 -1
             C(  6)= 0.577350 :    8  7 -4  6 -6 -5  3 -3  2 -2  1 -1
 CASE VECTOR =     192
 212344344

 FOR MS=S-0
 CSF    192: C(  1)=-0.577350 :   -8 -7  4  6 -6  5 -5  3  2 -2  1 -1
             C(  2)= 0.288675 :   -8  7 -4  6 -6  5 -5  3  2 -2  1 -1
             C(  3)= 0.288675 :    8 -7 -4  6 -6  5 -5  3  2 -2  1 -1
             C(  4)= 0.288675 :   -8  7  4  6 -6  5 -5 -3  2 -2  1 -1
             C(  5)= 0.288675 :    8 -7  4  6 -6  5 -5 -3  2 -2  1 -1
             C(  6)=-0.577350 :    8  7 -4  6 -6  5 -5 -3  2 -2  1 -1
 CASE VECTOR =     193
 212344434

 FOR MS=S-0
 CSF    193: C(  1)= 0.577350 :   -8 -7  4  6 -6  5 -5  3 -3  2  1 -1
             C(  2)=-0.288675 :   -8  7 -4  6 -6  5 -5  3 -3  2  1 -1
             C(  3)=-0.288675 :    8 -7 -4  6 -6  5 -5  3 -3  2  1 -1
             C(  4)=-0.288675 :   -8  7  4  6 -6  5 -5  3 -3 -2  1 -1
             C(  5)=-0.288675 :    8 -7  4  6 -6  5 -5  3 -3 -2  1 -1
             C(  6)= 0.577350 :    8  7 -4  6 -6  5 -5  3 -3 -2  1 -1
 CASE VECTOR =     194
 212344443

 FOR MS=S-0
 CSF    194: C(  1)=-0.577350 :   -8 -7  4  6 -6  5 -5  3 -3  2 -2  1
             C(  2)= 0.288675 :   -8  7 -4  6 -6  5 -5  3 -3  2 -2  1
             C(  3)= 0.288675 :    8 -7 -4  6 -6  5 -5  3 -3  2 -2  1
             C(  4)= 0.288675 :   -8  7  4  6 -6  5 -5  3 -3  2 -2 -1
             C(  5)= 0.288675 :    8 -7  4  6 -6  5 -5  3 -3  2 -2 -1
             C(  6)=-0.577350 :    8  7 -4  6 -6  5 -5  3 -3  2 -2 -1
 CASE VECTOR =     195
 213234444

 FOR MS=S-0
 CSF    195: C(  1)= 0.500000 :   -8  7 -4  6  5 -5  3 -3  2 -2  1 -1
             C(  2)=-0.500000 :    8 -7 -4  6  5 -5  3 -3  2 -2  1 -1
             C(  3)=-0.500000 :   -8  7  4 -6  5 -5  3 -3  2 -2  1 -1
             C(  4)= 0.500000 :    8 -7  4 -6  5 -5  3 -3  2 -2  1 -1
 CASE VECTOR =     196
 213243444

 FOR MS=S-0
 CSF    196: C(  1)=-0.500000 :   -8  7 -4  6 -6  5  3 -3  2 -2  1 -1
             C(  2)= 0.500000 :    8 -7 -4  6 -6  5  3 -3  2 -2  1 -1
             C(  3)= 0.500000 :   -8  7  4  6 -6 -5  3 -3  2 -2  1 -1
             C(  4)=-0.500000 :    8 -7  4  6 -6 -5  3 -3  2 -2  1 -1
 CASE VECTOR =     197
 213244344

 FOR MS=S-0
 CSF    197: C(  1)= 0.500000 :   -8  7 -4  6 -6  5 -5  3  2 -2  1 -1
             C(  2)=-0.500000 :    8 -7 -4  6 -6  5 -5  3  2 -2  1 -1
             C(  3)=-0.500000 :   -8  7  4  6 -6  5 -5 -3  2 -2  1 -1
             C(  4)= 0.500000 :    8 -7  4  6 -6  5 -5 -3  2 -2  1 -1
 CASE VECTOR =     198
 213244434

 FOR MS=S-0
 CSF    198: C(  1)=-0.500000 :   -8  7 -4  6 -6  5 -5  3 -3  2  1 -1
             C(  2)= 0.500000 :    8 -7 -4  6 -6  5 -5  3 -3  2  1 -1
             C(  3)= 0.500000 :   -8  7  4  6 -6  5 -5  3 -3 -2  1 -1
             C(  4)=-0.500000 :    8 -7  4  6 -6  5 -5  3 -3 -2  1 -1
 CASE VECTOR =     199
 213244443

 FOR MS=S-0
 CSF    199: C(  1)= 0.500000 :   -8  7 -4  6 -6  5 -5  3 -3  2 -2  1
             C(  2)=-0.500000 :    8 -7 -4  6 -6  5 -5  3 -3  2 -2  1
             C(  3)=-0.500000 :   -8  7  4  6 -6  5 -5  3 -3  2 -2 -1
             C(  4)= 0.500000 :    8 -7  4  6 -6  5 -5  3 -3  2 -2 -1
 CASE VECTOR =     200
 214134444

 FOR MS=S-0
 CSF    200: C(  1)= 0.707107 :   -8  7 -7  6  5 -5  3 -3  2 -2  1 -1
             C(  2)=-0.707107 :    8  7 -7 -6  5 -5  3 -3  2 -2  1 -1
 CASE VECTOR =     201
 214143444

 FOR MS=S-0
 CSF    201: C(  1)=-0.707107 :   -8  7 -7  6 -6  5  3 -3  2 -2  1 -1
             C(  2)= 0.707107 :    8  7 -7  6 -6 -5  3 -3  2 -2  1 -1
 CASE VECTOR =     202
 214144344

 FOR MS=S-0
 CSF    202: C(  1)= 0.707107 :   -8  7 -7  6 -6  5 -5  3  2 -2  1 -1
             C(  2)=-0.707107 :    8  7 -7  6 -6  5 -5 -3  2 -2  1 -1
 CASE VECTOR =     203
 214144434

 FOR MS=S-0
 CSF    203: C(  1)=-0.707107 :   -8  7 -7  6 -6  5 -5  3 -3  2  1 -1
             C(  2)= 0.707107 :    8  7 -7  6 -6  5 -5  3 -3 -2  1 -1
 CASE VECTOR =     204
 214144443

 FOR MS=S-0
 CSF    204: C(  1)= 0.707107 :   -8  7 -7  6 -6  5 -5  3 -3  2 -2  1
             C(  2)=-0.707107 :    8  7 -7  6 -6  5 -5  3 -3  2 -2 -1
 CASE VECTOR =     205
 214413444

 FOR MS=S-0
 CSF    205: C(  1)=-0.707107 :   -8  7 -7  4 -4  5  3 -3  2 -2  1 -1
             C(  2)= 0.707107 :    8  7 -7  4 -4 -5  3 -3  2 -2  1 -1
 CASE VECTOR =     206
 214414344

 FOR MS=S-0
 CSF    206: C(  1)= 0.707107 :   -8  7 -7  4 -4  5 -5  3  2 -2  1 -1
             C(  2)=-0.707107 :    8  7 -7  4 -4  5 -5 -3  2 -2  1 -1
 CASE VECTOR =     207
 214414434

 FOR MS=S-0
 CSF    207: C(  1)=-0.707107 :   -8  7 -7  4 -4  5 -5  3 -3  2  1 -1
             C(  2)= 0.707107 :    8  7 -7  4 -4  5 -5  3 -3 -2  1 -1
 CASE VECTOR =     208
 214414443

 FOR MS=S-0
 CSF    208: C(  1)= 0.707107 :   -8  7 -7  4 -4  5 -5  3 -3  2 -2  1
             C(  2)=-0.707107 :    8  7 -7  4 -4  5 -5  3 -3  2 -2 -1
 CASE VECTOR =     209
 214423344

 FOR MS=S-0
 CSF    209: C(  1)=-0.577350 :   -8  7 -7  4 -4 -6  5  3  2 -2  1 -1
             C(  2)= 0.288675 :   -8  7 -7  4 -4  6 -5  3  2 -2  1 -1
             C(  3)= 0.288675 :    8  7 -7  4 -4 -6 -5  3  2 -2  1 -1
             C(  4)= 0.288675 :   -8  7 -7  4 -4  6  5 -3  2 -2  1 -1
             C(  5)= 0.288675 :    8  7 -7  4 -4 -6  5 -3  2 -2  1 -1
             C(  6)=-0.577350 :    8  7 -7  4 -4  6 -5 -3  2 -2  1 -1
 CASE VECTOR =     210
 214423434

 FOR MS=S-0
 CSF    210: C(  1)= 0.577350 :   -8  7 -7  4 -4 -6  5  3 -3  2  1 -1
             C(  2)=-0.288675 :   -8  7 -7  4 -4  6 -5  3 -3  2  1 -1
             C(  3)=-0.288675 :    8  7 -7  4 -4 -6 -5  3 -3  2  1 -1
             C(  4)=-0.288675 :   -8  7 -7  4 -4  6  5  3 -3 -2  1 -1
             C(  5)=-0.288675 :    8  7 -7  4 -4 -6  5  3 -3 -2  1 -1
             C(  6)= 0.577350 :    8  7 -7  4 -4  6 -5  3 -3 -2  1 -1
 CASE VECTOR =     211
 214423443

 FOR MS=S-0
 CSF    211: C(  1)=-0.577350 :   -8  7 -7  4 -4 -6  5  3 -3  2 -2  1
             C(  2)= 0.288675 :   -8  7 -7  4 -4  6 -5  3 -3  2 -2  1
             C(  3)= 0.288675 :    8  7 -7  4 -4 -6 -5  3 -3  2 -2  1
             C(  4)= 0.288675 :   -8  7 -7  4 -4  6  5  3 -3  2 -2 -1
             C(  5)= 0.288675 :    8  7 -7  4 -4 -6  5  3 -3  2 -2 -1
             C(  6)=-0.577350 :    8  7 -7  4 -4  6 -5  3 -3  2 -2 -1
 CASE VECTOR =     212
 214424334

 FOR MS=S-0
 CSF    212: C(  1)=-0.577350 :   -8  7 -7  4 -4 -6  5 -5  3  2  1 -1
             C(  2)= 0.288675 :   -8  7 -7  4 -4  6  5 -5 -3  2  1 -1
             C(  3)= 0.288675 :    8  7 -7  4 -4 -6  5 -5 -3  2  1 -1
             C(  4)= 0.288675 :   -8  7 -7  4 -4  6  5 -5  3 -2  1 -1
             C(  5)= 0.288675 :    8  7 -7  4 -4 -6  5 -5  3 -2  1 -1
             C(  6)=-0.577350 :    8  7 -7  4 -4  6  5 -5 -3 -2  1 -1
 CASE VECTOR =     213
 214424343

 FOR MS=S-0
 CSF    213: C(  1)= 0.577350 :   -8  7 -7  4 -4 -6  5 -5  3  2 -2  1
             C(  2)=-0.288675 :   -8  7 -7  4 -4  6  5 -5 -3  2 -2  1
             C(  3)=-0.288675 :    8  7 -7  4 -4 -6  5 -5 -3  2 -2  1
             C(  4)=-0.288675 :   -8  7 -7  4 -4  6  5 -5  3  2 -2 -1
             C(  5)=-0.288675 :    8  7 -7  4 -4 -6  5 -5  3  2 -2 -1
             C(  6)= 0.577350 :    8  7 -7  4 -4  6  5 -5 -3  2 -2 -1
 CASE VECTOR =     214
 214424433

 FOR MS=S-0
 CSF    214: C(  1)=-0.577350 :   -8  7 -7  4 -4 -6  5 -5  3 -3  2  1
             C(  2)= 0.288675 :   -8  7 -7  4 -4  6  5 -5  3 -3 -2  1
             C(  3)= 0.288675 :    8  7 -7  4 -4 -6  5 -5  3 -3 -2  1
             C(  4)= 0.288675 :   -8  7 -7  4 -4  6  5 -5  3 -3  2 -1
             C(  5)= 0.288675 :    8  7 -7  4 -4 -6  5 -5  3 -3  2 -1
             C(  6)=-0.577350 :    8  7 -7  4 -4  6  5 -5  3 -3 -2 -1
 CASE VECTOR =     215
 214431444

 FOR MS=S-0
 CSF    215: C(  1)=-0.707107 :   -8  7 -7  4 -4  6  3 -3  2 -2  1 -1
             C(  2)= 0.707107 :    8  7 -7  4 -4 -6  3 -3  2 -2  1 -1
 CASE VECTOR =     216
 214432344

 FOR MS=S-0
 CSF    216: C(  1)= 0.500000 :   -8  7 -7  4 -4  6 -5  3  2 -2  1 -1
             C(  2)=-0.500000 :    8  7 -7  4 -4 -6 -5  3  2 -2  1 -1
             C(  3)=-0.500000 :   -8  7 -7  4 -4  6  5 -3  2 -2  1 -1
             C(  4)= 0.500000 :    8  7 -7  4 -4 -6  5 -3  2 -2  1 -1
 CASE VECTOR =     217
 214432434

 FOR MS=S-0
 CSF    217: C(  1)=-0.500000 :   -8  7 -7  4 -4  6 -5  3 -3  2  1 -1
             C(  2)= 0.500000 :    8  7 -7  4 -4 -6 -5  3 -3  2  1 -1
             C(  3)= 0.500000 :   -8  7 -7  4 -4  6  5  3 -3 -2  1 -1
             C(  4)=-0.500000 :    8  7 -7  4 -4 -6  5  3 -3 -2  1 -1
 CASE VECTOR =     218
 214432443

 FOR MS=S-0
 CSF    218: C(  1)= 0.500000 :   -8  7 -7  4 -4  6 -5  3 -3  2 -2  1
             C(  2)=-0.500000 :    8  7 -7  4 -4 -6 -5  3 -3  2 -2  1
             C(  3)=-0.500000 :   -8  7 -7  4 -4  6  5  3 -3  2 -2 -1
             C(  4)= 0.500000 :    8  7 -7  4 -4 -6  5  3 -3  2 -2 -1
 CASE VECTOR =     219
 214434144

 FOR MS=S-0
 CSF    219: C(  1)=-0.707107 :   -8  7 -7  4 -4  6  5 -5  2 -2  1 -1
             C(  2)= 0.707107 :    8  7 -7  4 -4 -6  5 -5  2 -2  1 -1
 CASE VECTOR =     220
 214434234

 FOR MS=S-0
 CSF    220: C(  1)= 0.500000 :   -8  7 -7  4 -4  6  5 -5 -3  2  1 -1
             C(  2)=-0.500000 :    8  7 -7  4 -4 -6  5 -5 -3  2  1 -1
             C(  3)=-0.500000 :   -8  7 -7  4 -4  6  5 -5  3 -2  1 -1
             C(  4)= 0.500000 :    8  7 -7  4 -4 -6  5 -5  3 -2  1 -1
 CASE VECTOR =     221
 214434243

 FOR MS=S-0
 CSF    221: C(  1)=-0.500000 :   -8  7 -7  4 -4  6  5 -5 -3  2 -2  1
             C(  2)= 0.500000 :    8  7 -7  4 -4 -6  5 -5 -3  2 -2  1
             C(  3)= 0.500000 :   -8  7 -7  4 -4  6  5 -5  3  2 -2 -1
             C(  4)=-0.500000 :    8  7 -7  4 -4 -6  5 -5  3  2 -2 -1
 CASE VECTOR =     222
 214434414

 FOR MS=S-0
 CSF    222: C(  1)=-0.707107 :   -8  7 -7  4 -4  6  5 -5  3 -3  1 -1
             C(  2)= 0.707107 :    8  7 -7  4 -4 -6  5 -5  3 -3  1 -1
 CASE VECTOR =     223
 214434423

[...]
   41  N  2 XZ   -0.000000   0.075020  -0.000000   0.040892   0.000000
   42  N  2 YZ   -0.000000  -0.049166  -0.000000   0.012561   0.000000
   43  N  2 XX   -0.803665  -0.000000   0.787689   0.000000   0.180259
   44  N  2 YY    3.089955  -0.000000  -0.283273   0.000000   0.671298
   45  N  2 ZZ   -1.427983  -0.000000   0.338469   0.000000  -1.175487
   46  N  2 XY    1.243184  -0.000000  -1.895818   0.000000   2.977930
   47  N  2 XZ   -0.000000  -0.666242  -0.000000  -0.665065   0.000000
   48  N  2 YZ   -0.000000   0.772514  -0.000000  -1.272533   0.000000
   49  H  3  S   -0.328662  -0.000000  -1.215717   0.000000   0.384391
   50  H  3  S   -0.117818  -0.000000  -1.627420   0.000000   0.255537
   51  H  3  S    0.341277  -0.000000   0.300698   0.000000   0.020209
   52  H  3  X    0.138479  -0.000000  -0.292822   0.000000  -0.878239
   53  H  3  Y    0.095224  -0.000000  -0.327876   0.000000  -1.492840
   54  H  3  Z   -0.000000   1.414376  -0.000000   0.472045   0.000000
   55  H  3  X   -0.187344  -0.000000   0.445379   0.000000  -0.149617
   56  H  3  Y   -0.318650  -0.000000   0.358783   0.000000  -0.058689
   57  H  3  Z   -0.000000  -0.250448  -0.000000  -0.086062   0.000000

                     41         42         43         44         45
                    1.8606     1.9923     2.5208     2.5255     2.5951
                     A'         A'         A'         A''        A'  
    1  O  1  S    0.027188  -0.025587   0.156519   0.000000   0.064465
    2  O  1  S   -4.969551  -1.807013 -14.215482   0.000000  -0.861970
    3  O  1  S   -1.137895  -1.329538  -4.448986   0.000000  -0.187057
    4  O  1  X   -0.670865   0.059799  -0.223205   0.000000  -0.045975
    5  O  1  Y    0.102614  -0.095168  -0.838771   0.000000  -0.227699
    6  O  1  Z   -0.000000   0.000000   0.000000  -0.042719  -0.000000
    7  O  1  X    3.305729   0.254858   3.324671   0.000000   0.808752
    8  O  1  Y    2.134783   1.706438  11.793928   0.000000   0.836114
    9  O  1  Z   -0.000000   0.000000   0.000000  -0.466216  -0.000000
   10  O  1  X    0.008202   0.080545   0.468487   0.000000  -0.004942
   11  O  1  Y    0.319729   0.370000   1.129803   0.000000  -0.140992
   12  O  1  Z   -0.000000   0.000000   0.000000   0.100695  -0.000000
   13  O  1 XX    0.012355  -0.035816  -0.048772   0.000000   0.058008
   14  O  1 YY   -0.010401   0.026843   0.183992   0.000000  -0.093173
   15  O  1 ZZ    0.005528   0.012185  -0.099495   0.000000   0.046578
   16  O  1 XY    0.019099  -0.012997   0.089594   0.000000   0.178563
   17  O  1 XZ   -0.000000   0.000000   0.000000  -0.040171  -0.000000
   18  O  1 YZ   -0.000000   0.000000   0.000000  -0.224313  -0.000000
   19  O  1 XX   -0.554398   0.050701  -0.548117   0.000000  -0.369842
   20  O  1 YY   -0.154547  -0.715668  -4.900642   0.000000  -0.160141
   21  O  1 ZZ   -0.337592   0.074614  -0.168908   0.000000  -0.051255
   22  O  1 XY   -1.480253  -0.105139  -1.553119   0.000000  -0.716334
   23  O  1 XZ   -0.000000   0.000000   0.000000   0.204523  -0.000000
   24  O  1 YZ   -0.000000   0.000000   0.000000   0.708544  -0.000000
   25  N  2  S   -0.248775   0.325060   0.940119   0.000000  -0.092422
   26  N  2  S    4.841046   3.399260  20.860388   0.000000   1.540311
   27  N  2  S    0.028354  -1.353408   1.433969   0.000000   0.691178
   28  N  2  X    0.525325   0.923940   0.311088   0.000000   0.015171
   29  N  2  Y   -0.165063  -0.343562   1.382749   0.000000   0.144625
   30  N  2  Z   -0.000000   0.000000   0.000000   0.022717  -0.000000
   31  N  2  X   -2.349335   0.477183   3.647930   0.000000  -0.478255
   32  N  2  Y    5.051460   1.479971  10.931164   0.000000   0.872155
   33  N  2  Z   -0.000000   0.000000   0.000000   0.606750  -0.000000
   34  N  2  X   -0.119697  -0.559010  -0.037613   0.000000   0.379172
   35  N  2  Y    0.241789   0.608162   0.721993   0.000000   0.138450
   36  N  2  Z   -0.000000   0.000000   0.000000  -0.182851  -0.000000
   37  N  2 XX    0.207372  -0.084995  -0.210781   0.000000  -0.936007
   38  N  2 YY    0.095330  -0.001593   0.548433   0.000000   0.271993
   39  N  2 ZZ   -0.118540   0.140907  -0.498585   0.000000   0.733483
   40  N  2 XY   -0.177705   0.177985   0.269686   0.000000  -0.622478
   41  N  2 XZ   -0.000000   0.000000   0.000000   0.657741  -0.000000
   42  N  2 YZ   -0.000000   0.000000   0.000000   0.959352  -0.000000
   43  N  2 XX   -2.580630  -0.333665  -1.977119   0.000000  -0.071266
   44  N  2 YY    1.625664  -0.241506   1.530363   0.000000  -0.008246
   45  N  2 ZZ   -0.415695  -1.069170  -2.412441   0.000000  -0.649176
   46  N  2 XY    0.390800  -0.168618   1.581828   0.000000   0.065331
   47  N  2 XZ   -0.000000   0.000000   0.000000  -0.216880  -0.000000
   48  N  2 YZ   -0.000000   0.000000   0.000000  -0.114742  -0.000000
   49  H  3  S    2.125386  -0.883361  -0.126834   0.000000   0.180071
   50  H  3  S    1.318442   3.320374   0.179546   0.000000  -0.662771
   51  H  3  S   -0.380380  -0.524445   0.159651   0.000000   0.104136
   52  H  3  X    0.326229   1.370489  -0.103421   0.000000   0.181233
   53  H  3  Y   -0.059659  -1.030922   0.031777   0.000000   0.364733
   54  H  3  Z   -0.000000   0.000000   0.000000  -0.046068  -0.000000
   55  H  3  X   -0.064644  -1.286581  -0.018996   0.000000  -0.221324
   56  H  3  Y    0.503279   0.964599  -0.245206   0.000000  -0.382504
   57  H  3  Z   -0.000000   0.000000   0.000000   0.053911  -0.000000

                     46         47         48         49         50
                    2.6223     2.7797     3.0313     3.6394     3.6494
                     A''        A'         A'         A'         A'' 
    1  O  1  S    0.000000   0.198517   0.081355   0.212827   0.000000
    2  O  1  S    0.000000  -5.374607  -1.416133  -3.190609   0.000000
    3  O  1  S    0.000000  -1.489905   0.533822  -1.223263   0.000000
    4  O  1  X    0.000000  -0.259338  -0.125872   0.035005   0.000000
    5  O  1  Y    0.000000  -0.658187  -0.629369   0.142027   0.000000
    6  O  1  Z    0.033903   0.000000   0.000000  -0.000000  -0.000558
    7  O  1  X    0.000000   1.099809   0.418998   0.679714   0.000000
    8  O  1  Y    0.000000   4.377351   1.747251   2.235786   0.000000
    9  O  1  Z    0.076815   0.000000   0.000000  -0.000000  -0.007703
   10  O  1  X    0.000000  -0.112905   0.025381   0.075237   0.000000
   11  O  1  Y    0.000000   0.320743  -0.166556   0.217549   0.000000
   12  O  1  Z    0.090396   0.000000   0.000000  -0.000000  -0.006604
   13  O  1 XX    0.000000  -0.086650   0.197853   0.674252   0.000000
   14  O  1 YY    0.000000   0.037384  -0.152035   0.003024   0.000000
   15  O  1 ZZ    0.000000   0.083157   0.016139  -0.787920   0.000000
   16  O  1 XY    0.000000  -0.148929   0.023582  -0.124835   0.000000
   17  O  1 XZ    0.102876   0.000000   0.000000  -0.000000   1.111438
   18  O  1 YZ    0.052980   0.000000   0.000000  -0.000000  -0.334185
   19  O  1 XX    0.000000  -0.180242  -0.469248  -0.413576   0.000000
   20  O  1 YY    0.000000  -1.761255  -0.660478  -0.850807   0.000000
   21  O  1 ZZ    0.000000  -0.295461  -0.186129   0.537963   0.000000
   22  O  1 XY    0.000000  -0.097541  -0.239954  -0.270457   0.000000
   23  O  1 XZ   -0.087322   0.000000   0.000000  -0.000000  -0.614894
   24  O  1 YZ   -0.202295   0.000000   0.000000  -0.000000   0.192242
   25  N  2  S    0.000000  -1.076986   0.679109  -3.882212   0.000000
   26  N  2  S    0.000000   7.806830   3.440579   8.362868   0.000000
   27  N  2  S    0.000000   2.155301  -1.653945   1.169787   0.000000
   28  N  2  X    0.000000  -0.094189   0.389240   0.314097   0.000000
   29  N  2  Y    0.000000   0.576414   0.031204   0.227548   0.000000
   30  N  2  Z    0.113077   0.000000   0.000000  -0.000000  -0.006805
   31  N  2  X    0.000000   1.320619   1.045393   0.856244   0.000000
   32  N  2  Y    0.000000   4.062751   0.462211   2.080517   0.000000
   33  N  2  Z   -0.409131   0.000000   0.000000  -0.000000   0.050545
   34  N  2  X    0.000000   0.598919  -0.488375   0.020831   0.000000
   35  N  2  Y    0.000000  -0.058445   0.166102   0.188175   0.000000
   36  N  2  Z   -0.301167   0.000000   0.000000  -0.000000   0.019816
   37  N  2 XX    0.000000   0.295542   0.682811   0.752275   0.000000
   38  N  2 YY    0.000000  -0.748945  -0.555266   0.982443   0.000000
   39  N  2 ZZ    0.000000   0.969560  -0.339252   0.640328   0.000000
   40  N  2 XY    0.000000   0.407074  -0.965791  -0.009498   0.000000
   41  N  2 XZ    1.005147   0.000000   0.000000  -0.000000  -0.124417
   42  N  2 YZ   -0.680779   0.000000   0.000000  -0.000000   0.038363
   43  N  2 XX    0.000000  -1.047852  -0.286504  -1.298378   0.000000
   44  N  2 YY    0.000000   0.958606   0.333503  -0.691476   0.000000
   45  N  2 ZZ    0.000000  -1.511519  -0.406640  -1.782165   0.000000
   46  N  2 XY    0.000000   0.762962   0.136553   0.120782   0.000000
   47  N  2 XZ   -0.635577   0.000000   0.000000  -0.000000   0.240131
   48  N  2 YZ    0.298878   0.000000   0.000000  -0.000000  -0.077103
   49  H  3  S    0.000000   0.598294  -1.723798  -0.713806   0.000000
   50  H  3  S    0.000000  -1.313413   0.732010   0.350363   0.000000
   51  H  3  S    0.000000   0.087544   0.167137  -0.274400   0.000000
   52  H  3  X    0.000000  -0.638088   0.725228   0.323019   0.000000
   53  H  3  Y    0.000000   0.122674  -0.597360  -0.221809   0.000000
   54  H  3  Z   -0.372251   0.000000   0.000000  -0.000000  -0.034826
   55  H  3  X    0.000000   0.361816  -0.006410  -0.142882   0.000000
   56  H  3  Y    0.000000   0.133431   0.150890   0.102289   0.000000
   57  H  3  Z    0.661633   0.000000   0.000000  -0.000000  -0.043586

                     51         52         53         54         55
                    3.7201     3.9091     3.9363     4.0390     5.1042
                     A'         A''        A'         A'         A'  
    1  O  1  S    0.369003  -0.000000   0.143314  -0.836067   7.275576
    2  O  1  S   -4.625514  -0.000000  -0.758485  -2.978177  -2.623970
    3  O  1  S   -1.257501  -0.000000  -0.129684   0.272904  -2.927601
    4  O  1  X    0.029281  -0.000000   0.152920   0.109093   0.120971
    5  O  1  Y    0.100364  -0.000000  -0.030075   0.310053   0.419420
    6  O  1  Z   -0.000000  -0.144295  -0.000000  -0.000000  -0.000000
    7  O  1  X    0.735323  -0.000000  -0.552654   0.533086  -0.881865
    8  O  1  Y    3.084620  -0.000000   0.768322   2.354198  -3.251051
    9  O  1  Z   -0.000000   0.651150  -0.000000  -0.000000  -0.000000
   10  O  1  X    0.144024  -0.000000  -0.196078  -0.056001   0.069492
   11  O  1  Y    0.126469  -0.000000   0.010118  -0.254564   0.452737
   12  O  1  Z   -0.000000   0.274045  -0.000000  -0.000000  -0.000000
   13  O  1 XX   -0.606163  -0.000000  -0.664509   0.471235  -1.031729
   14  O  1 YY   -0.132203  -0.000000   0.594461  -0.995768  -1.332686
   15  O  1 ZZ    0.581830  -0.000000   0.012701   0.754784  -1.024446
   16  O  1 XY    0.475628  -0.000000  -0.913610  -0.623440  -0.109703
   17  O  1 XZ   -0.000000   0.345061  -0.000000  -0.000000  -0.000000
   18  O  1 YZ   -0.000000   1.152835  -0.000000  -0.000000  -0.000000
   19  O  1 XX    0.327464  -0.000000   0.506059  -0.453188   2.003369
   20  O  1 YY   -1.041680  -0.000000  -0.706887  -0.560201   2.994024
   21  O  1 ZZ   -0.286857  -0.000000   0.028301  -0.596315   1.955877
   22  O  1 XY   -0.633643  -0.000000   0.658998   0.073673   0.326627
   23  O  1 XZ   -0.000000  -0.267229  -0.000000  -0.000000  -0.000000
   24  O  1 YZ   -0.000000  -0.898462  -0.000000  -0.000000  -0.000000
   25  N  2  S   -3.843969  -0.000000  -0.929719  -1.102615  -0.062411
   26  N  2  S   10.021846  -0.000000   2.322736   5.438368  -5.582201
   27  N  2  S    1.345359  -0.000000   0.106450  -0.197349   2.564458
   28  N  2  X    0.358652  -0.000000   0.085428   0.197192   0.056644
   29  N  2  Y    0.165550  -0.000000   0.014014   0.615504   0.186115
   30  N  2  Z   -0.000000   0.049055  -0.000000  -0.000000  -0.000000
   31  N  2  X    1.377222  -0.000000   1.131206   0.911262  -1.237487
   32  N  2  Y    3.164601  -0.000000   0.147738   2.642164  -3.602721
   33  N  2  Z   -0.000000  -0.672521  -0.000000  -0.000000  -0.000000
   34  N  2  X    0.082891  -0.000000   0.128193   0.025389   0.335087
   35  N  2  Y    0.255845  -0.000000   0.092419  -0.014328   0.486941
   36  N  2  Z   -0.000000  -0.152148  -0.000000  -0.000000  -0.000000
   37  N  2 XX    0.984815  -0.000000   0.080085  -0.064207  -0.181553
   38  N  2 YY    1.001152  -0.000000   0.473395   0.909009   0.141015
   39  N  2 ZZ    0.480993  -0.000000   0.120542  -0.123666  -0.181865
   40  N  2 XY   -0.102317  -0.000000  -0.488423   0.331305   0.134603
   41  N  2 XZ   -0.000000   0.106739  -0.000000  -0.000000  -0.000000
   42  N  2 YZ   -0.000000   0.408316  -0.000000  -0.000000  -0.000000
   43  N  2 XX   -1.562685  -0.000000   0.048896  -0.608786   0.430968
   44  N  2 YY   -0.649487  -0.000000  -0.633634   0.021060  -0.886116
   45  N  2 ZZ   -1.681556  -0.000000  -0.443296  -0.817096   0.614123
   46  N  2 XY    0.609939  -0.000000   0.571706   0.506623  -0.624772
   47  N  2 XZ   -0.000000  -0.171054  -0.000000  -0.000000  -0.000000
   48  N  2 YZ   -0.000000  -0.598237  -0.000000  -0.000000  -0.000000
   49  H  3  S   -0.757849  -0.000000  -0.584352   0.059347   0.077356
   50  H  3  S   -0.265699  -0.000000  -0.040139  -0.013982  -0.153651
   51  H  3  S   -0.064437  -0.000000   0.031217   0.001394  -0.139455
   52  H  3  X    0.352931  -0.000000   0.271670  -0.011308   0.008399
   53  H  3  Y   -0.450910  -0.000000  -0.126201  -0.059426   0.042275
   54  H  3  Z   -0.000000   0.031159  -0.000000  -0.000000  -0.000000
   55  H  3  X   -0.121854  -0.000000  -0.134462  -0.142812  -0.002829
   56  H  3  Y   -0.192500  -0.000000  -0.186921  -0.117362   0.095507
   57  H  3  Z   -0.000000  -0.039089  -0.000000  -0.000000  -0.000000

                     56         57
                    8.4486    10.7744
                     A'         A'  
    1  O  1  S   -0.171242  -8.550865
    2  O  1  S   -4.963323  12.066546
    3  O  1  S   -1.154982   4.125186
    4  O  1  X   -0.024768  -0.065123
    5  O  1  Y   -0.135203  -0.245606
    6  O  1  Z   -0.000000  -0.000000
    7  O  1  X    0.801155   0.895792
    8  O  1  Y    3.350298   3.369394
    9  O  1  Z   -0.000000  -0.000000
   10  O  1  X   -0.010198  -0.130013
   11  O  1  Y    0.049160  -0.702000
   12  O  1  Z   -0.000000  -0.000000
   13  O  1 XX    0.110254  -1.140032
   14  O  1 YY    0.388497  -1.037973
   15  O  1 ZZ    0.122920  -1.135113
   16  O  1 XY    0.091900   0.035794
   17  O  1 XZ   -0.000000  -0.000000
   18  O  1 YZ   -0.000000  -0.000000
   19  O  1 XX    0.089837  -4.516487
   20  O  1 YY   -1.092834  -5.482875
   21  O  1 ZZ    0.113471  -4.485726
   22  O  1 XY   -0.352664  -0.312011
   23  O  1 XZ   -0.000000  -0.000000
   24  O  1 YZ   -0.000000  -0.000000
   25  N  2  S   -8.213314  -1.058108
   26  N  2  S   23.544783   8.091508
   27  N  2  S    2.684484  -3.176153
   28  N  2  X    0.157907  -0.029626
   29  N  2  Y    0.131357  -0.065744
   30  N  2  Z   -0.000000  -0.000000
   31  N  2  X    1.375777   1.273933
   32  N  2  Y    3.437019   3.843994
   33  N  2  Z   -0.000000  -0.000000
   34  N  2  X    0.421807  -0.392441
   35  N  2  Y    0.070378  -0.720782
   36  N  2  Z   -0.000000  -0.000000
   37  N  2 XX   -1.097898  -0.045543
   38  N  2 YY   -1.055509  -0.016999
   39  N  2 ZZ   -1.195045  -0.053157
   40  N  2 XY   -0.065830  -0.000807
   41  N  2 XZ   -0.000000  -0.000000
   42  N  2 YZ   -0.000000  -0.000000
   43  N  2 XX   -4.929786  -0.980304
   44  N  2 YY   -3.865154   0.270527
   45  N  2 ZZ   -5.301074  -1.169805
   46  N  2 XY    0.666402   0.657222
   47  N  2 XZ   -0.000000  -0.000000
   48  N  2 YZ   -0.000000  -0.000000
   49  H  3  S   -0.397115   0.015141
   50  H  3  S   -0.841540   0.178649
   51  H  3  S   -0.275438   0.088564
   52  H  3  X    0.131325  -0.021093
   53  H  3  Y   -0.209608  -0.036669
   54  H  3  Z   -0.000000  -0.000000
   55  H  3  X    0.013024  -0.044567
   56  H  3  Y   -0.204149  -0.137341
   57  H  3  Z   -0.000000  -0.000000
 .....DONE WITH MCSCF ITERATIONS.....
 CPU     0: STEP CPU TIME=     5.46 TOTAL CPU TIME=          6.6 (      0.1 MIN)
 TOTAL WALL CLOCK TIME=          7.0 SECONDS, CPU UTILIZATION IS    94.03%

     ----------------------------------------------------------------
     PROPERTY VALUES FOR THE MCSCF SELF-CONSISTENT FIELD WAVEFUNCTION
     ----------------------------------------------------------------

 THIS MCSCF AVERAGED   2 ROOTS OF DIFFERENT ENERGY.
 SINCE NO STATE-SPECIFIC DENSITY MATRIX IS AVAILABLE,
 PROPERTIES WILL NOT BE COMPUTED.

              2555622  WORDS OF DYNAMIC MEMORY USED
 EXECUTION OF GAMESS TERMINATED NORMALLY Thu Sep 30 11:20:00 2021
 DDI: 777720 bytes (0.7 MB / 0 MWords) used by master data server.

 ----------------------------------------
 CPU timing information for all processes
 ========================================
 0: 4.971 + 1.734 = 6.706
 1: 4.819 + 1.567 = 6.387
 2: 4.815 + 1.615 = 6.430
 3: 4.775 + 1.453 = 6.229
 ----------------------------------------
 ddikick.x: exited gracefully.
----- accounting info -----
Files used on the master node ccp02 were:
-rw-r--r-- 1 shepard shepard    54155 Sep 30 11:19 /local/shepard/tmp.L7OGQzz9TI/cas129_b3lyp_BFD-dan-normf0.F05
-rw-rw-r-- 1 shepard shepard  1995920 Sep 30 11:20 /local/shepard/tmp.L7OGQzz9TI/cas129_b3lyp_BFD-dan-normf0.F10
-rw-rw-r-- 1 shepard shepard   293576 Sep 30 11:19 /local/shepard/tmp.L7OGQzz9TI/cas129_b3lyp_BFD-dan-normf0.F11
-rw-rw-r-- 1 shepard shepard   293576 Sep 30 11:19 /local/shepard/tmp.L7OGQzz9TI/cas129_b3lyp_BFD-dan-normf0.F11.001
-rw-rw-r-- 1 shepard shepard   293576 Sep 30 11:19 /local/shepard/tmp.L7OGQzz9TI/cas129_b3lyp_BFD-dan-normf0.F11.002
-rw-rw-r-- 1 shepard shepard   293576 Sep 30 11:19 /local/shepard/tmp.L7OGQzz9TI/cas129_b3lyp_BFD-dan-normf0.F11.003
-rw-rw-r-- 1 shepard shepard    21256 Sep 30 11:19 /local/shepard/tmp.L7OGQzz9TI/cas129_b3lyp_BFD-dan-normf0.F12
-rw-rw-r-- 1 shepard shepard    21256 Sep 30 11:19 /local/shepard/tmp.L7OGQzz9TI/cas129_b3lyp_BFD-dan-normf0.F12.001
-rw-rw-r-- 1 shepard shepard    21256 Sep 30 11:19 /local/shepard/tmp.L7OGQzz9TI/cas129_b3lyp_BFD-dan-normf0.F12.002
-rw-rw-r-- 1 shepard shepard    21256 Sep 30 11:19 /local/shepard/tmp.L7OGQzz9TI/cas129_b3lyp_BFD-dan-normf0.F12.003
-rw-rw-r-- 1 shepard shepard 20000008 Sep 30 11:19 /local/shepard/tmp.L7OGQzz9TI/cas129_b3lyp_BFD-dan-normf0.F14
-rw-rw-r-- 1 shepard shepard 20000008 Sep 30 11:19 /local/shepard/tmp.L7OGQzz9TI/cas129_b3lyp_BFD-dan-normf0.F14.001
-rw-rw-r-- 1 shepard shepard 20000008 Sep 30 11:19 /local/shepard/tmp.L7OGQzz9TI/cas129_b3lyp_BFD-dan-normf0.F14.002
-rw-rw-r-- 1 shepard shepard 20000008 Sep 30 11:19 /local/shepard/tmp.L7OGQzz9TI/cas129_b3lyp_BFD-dan-normf0.F14.003
-rw-rw-r-- 1 shepard shepard   180384 Sep 30 11:19 /local/shepard/tmp.L7OGQzz9TI/cas129_b3lyp_BFD-dan-normf0.F15
-rw-rw-r-- 1 shepard shepard   180384 Sep 30 11:20 /local/shepard/tmp.L7OGQzz9TI/cas129_b3lyp_BFD-dan-normf0.F15.001
-rw-rw-r-- 1 shepard shepard   180384 Sep 30 11:20 /local/shepard/tmp.L7OGQzz9TI/cas129_b3lyp_BFD-dan-normf0.F15.002
-rw-rw-r-- 1 shepard shepard   180384 Sep 30 11:20 /local/shepard/tmp.L7OGQzz9TI/cas129_b3lyp_BFD-dan-normf0.F15.003
-rw-rw-r-- 1 shepard shepard   180384 Sep 30 11:19 /local/shepard/tmp.L7OGQzz9TI/cas129_b3lyp_BFD-dan-normf0.F16
-rw-rw-r-- 1 shepard shepard   180384 Sep 30 11:19 /local/shepard/tmp.L7OGQzz9TI/cas129_b3lyp_BFD-dan-normf0.F16.001
-rw-rw-r-- 1 shepard shepard   180384 Sep 30 11:19 /local/shepard/tmp.L7OGQzz9TI/cas129_b3lyp_BFD-dan-normf0.F16.002
-rw-rw-r-- 1 shepard shepard   180384 Sep 30 11:19 /local/shepard/tmp.L7OGQzz9TI/cas129_b3lyp_BFD-dan-normf0.F16.003
Thu Sep 30 11:20:03 CEST 2021
0.135u 0.072s 0:10.36 1.9%	0+0k 112+280io 0pf+0w
